  -1.60312500000000        -6.131647673482289E-018
  -1.38937500000000        -6.121048375603304E-018
  -1.17562500000000        -4.740002301564456E-018
 -0.961875000000000         6.968556260017517E-018
 -0.748125000000000         7.133834604162711E-017
 -0.534375000000000         3.508324022957987E-016
 -0.320625000000000         1.370191508926226E-015
 -0.106875000000000         4.583572129622965E-015
  0.106875000000000         1.350592728779139E-014
  0.320625000000000         3.566591726565191E-014
  0.534375000000000         8.558428907067164E-014
  0.748125000000000         1.888574911464167E-013
  0.961875000000000         3.872522414248107E-013
   1.17562500000000         7.444931765491832E-013
   1.38937500000000         1.352187075731616E-012
   1.60312500000000         2.335057936333488E-012
   1.81687500000000         3.854591917767081E-012
   2.03062500000000         6.110147795597087E-012
   2.24437500000000         9.336724359387722E-012
   2.45812500000000         1.379896774764058E-011
   2.67187500000000         1.978136623580352E-011
   2.88562500000000         2.757509139074347E-011
   3.09937500000000         3.746244067274642E-011
   3.31312500000000         4.970036397310499E-011
   3.52687500000000         6.450466035514210E-011
   3.74062500000000         8.203682486346712E-011
   3.95437500000000         1.023949940689588E-010
   4.16812500000000         1.256105522802308E-010
   4.38187500000000         1.516507038289269E-010
   4.59562500000000         1.804271766826790E-010
   4.80937500000000         2.118103074582212E-010
   5.02312500000000         2.456466402472515E-010
   5.23687500000000         2.817783884208507E-010
   5.45062500000000         3.200622230687517E-010
   5.66437500000000         3.603853102361363E-010
   5.87812500000000         4.026769801293749E-010
   6.09187500000000         4.469147196199162E-010
   6.30562500000000         4.931244415229313E-010
   6.51937500000000         5.413754905075216E-010
   6.73312500000000         5.917715905027058E-010
   6.94687500000000         6.444399729523921E-010
   7.16062500000000         6.995202975323926E-010
   7.37437500000000         7.571556222529201E-010
   7.58812500000000         8.174867494709277E-010
   7.80187500000000         8.806508841681157E-010
   8.01562500000000         9.467847071508144E-010
   8.22937500000000         1.016031015120266E-009
   8.44312500000000         1.088547710894537E-009
   8.65687500000000         1.164517290029871E-009
   8.87062500000000         1.244155156011119E-009
   9.08437500000000         1.327714884202189E-009
   9.29812500000000         1.415489588029676E-009
   9.51187500000000         1.507808576147769E-009
   9.72562500000000         1.605029619401601E-009
   9.93937500000000         1.707527588198353E-009
   10.1531250000000         1.815680637565102E-009
   10.3668750000000         1.929855611822517E-009
   10.5806250000000         2.050394222895783E-009
   10.7943750000000         2.177601039550946E-009
   11.0081250000000         2.311734504001228E-009
   11.2218750000000         2.453001486898496E-009
   11.4356250000000         2.601555227690249E-009
   11.6493750000000         2.757496530358839E-009
   11.8631250000000         2.920877629220251E-009
   12.0768750000000         3.091708241250837E-009
   12.2906250000000         3.269963285632218E-009
   12.5043750000000         3.455591874103853E-009
   12.7181250000000         3.648527615670914E-009
   12.9318750000000         3.848699747015598E-009
   13.1456250000000         4.056045483215135E-009
   13.3593750000000         4.270523027856024E-009
   13.5731250000000         4.492124979074689E-009
   13.7868750000000         4.720891230597488E-009
   14.0006250000000         4.956920442233119E-009
   14.2143750000000         5.200378690340786E-009
   14.4281250000000         5.451504236763498E-009
   14.6418750000000         5.710607228862813E-009
   14.8556250000000         5.978063714407967E-009
   15.0693750000000         6.254304176944169E-009
   15.2831250000000         6.539797043402532E-009
   15.4968750000000         6.835028880930944E-009
   15.7106250000000         7.140482941595457E-009
   15.9243750000000         7.456618711545947E-009
   16.1381250000000         7.783854420559730E-009
   16.3518750000000         8.122554540202882E-009
   16.5656250000000         8.473023518291772E-009
   16.7793750000000         8.835506052103420E-009
   16.9931250000000         9.210193283634743E-009
   17.2068750000000         9.597233716938349E-009
   17.4206250000000         9.996746727685959E-009
   17.6343750000000         1.040883622430572E-008
   17.8481250000000         1.083360276253840E-008
   18.0618750000000         1.127115226823948E-008
   18.2756250000000         1.172160058982240E-008
   18.4893750000000         1.218507403233258E-008
   18.7031250000000         1.266170694900036E-008
   18.9168750000000         1.315163779716385E-008
   19.1306250000000         1.365500581835556E-008
   19.3443750000000         1.417195001246113E-008
   19.5581250000000         1.470261169436367E-008
   19.7718750000000         1.524714132647991E-008
   19.9856250000000         1.580570892083550E-008
   20.1993750000000         1.637851688749642E-008
   20.4131250000000         1.696581321737579E-008
   20.6268750000000         1.756790252423476E-008
   20.8406250000000         1.818515289115320E-008
   21.0543750000000         1.881799677419635E-008
   21.2681250000000         1.946692521722167E-008
   21.4818750000000         2.013247567138323E-008
   21.6956250000000         2.081521492448373E-008
   21.9093750000000         2.151571931690369E-008
   22.1231250000000         2.223455503817553E-008
   22.3368750000000         2.297226126566984E-008
   22.5506250000000         2.372933862587094E-008
   22.7643750000000         2.450624437778015E-008
   22.9781250000000         2.530339491714344E-008
   23.1918750000000         2.612117505785021E-008
   23.4056250000000         2.695995267820583E-008
   23.6193750000000         2.782009655203235E-008
   23.8331250000000         2.870199523171209E-008
   24.0468750000000         2.960607464294505E-008
   24.2606250000000         3.053281261912849E-008
   24.4743750000000         3.148274923154321E-008
   24.6881250000000         3.245649213548279E-008
   24.9018750000000         3.345471690685413E-008
   25.1156250000000         3.447816236552637E-008
   25.3293750000000         3.552762112404211E-008
   25.5431250000000         3.660392582426942E-008
   25.7568750000000         3.770793126978197E-008
   25.9706250000000         3.884049310503177E-008
   26.1843750000000         4.000244421083676E-008
   26.3981250000000         4.119457071002888E-008
   26.6118750000000         4.241758994214747E-008
   26.8256250000000         4.367213431960759E-008
   27.0393750000000         4.495874481866907E-008
   27.2531250000000         4.627787746134417E-008
   27.4668750000000         4.762992559671014E-008
   27.6806250000000         4.901525794952968E-008
   27.8943750000000         5.043426964854998E-008
   28.1081250000000         5.188743997903322E-008
   28.3218750000000         5.337538702152208E-008
   28.5356250000000         5.489890719953919E-008
   28.7493750000000         5.645898688525457E-008
   28.9631250000000         5.805677529759505E-008
   29.1768750000000         5.969351232549424E-008
   29.3906250000000         6.137041207669592E-008
   29.6043750000000         6.308851209269720E-008
   29.8181250000000         6.484850767724167E-008
   30.0318750000000         6.665059960316973E-008
   30.2456250000000         6.849438826038733E-008
   30.4593750000000         7.037884844790899E-008
   30.6731250000000         7.230241263807527E-008
   30.8868750000000         7.426317865171791E-008
   31.1006250000000         7.625923843766191E-008
   31.3143750000000         7.828910236782111E-008
   31.5281250000000         8.035216971803886E-008
   31.7418750000000         8.244917491791480E-008
   31.9556250000000         8.458252603863517E-008
   32.1693750000000         8.675644954693378E-008
   32.3831250000000         8.897686771056159E-008
   32.5968750000000         9.125096229013803E-008
   32.8106250000000         9.358641970159362E-008
   33.0243750000000         9.599040450544397E-008
   33.2381250000000         9.846836307708201E-008
   33.4518750000000         1.010228101368889E-007
   33.6656250000000         1.036522875483651E-007
   33.8793750000000         1.063506989299340E-007
   34.0931250000000         1.091072085466519E-007
   34.3068750000000         1.119068446376660E-007
   34.5206250000000         1.147318681700477E-007
   34.7343750000000         1.175638627803697E-007
   34.9481250000000         1.203863831757113E-007
   35.1618750000000         1.231878821611097E-007
   35.3756250000000         1.259645398459123E-007
   35.5893750000000         1.287225593288689E-007
   35.8031250000000         1.314794885378297E-007
   36.0168750000000         1.342641864389217E-007
   36.2306250000000         1.371151770464211E-007
   36.4443750000000         1.400773190857778E-007
   36.6581250000000         1.431969454651426E-007
   36.8718750000000         1.465158706751025E-007
   37.0856250000000         1.500648919396798E-007
   37.2993750000000         1.538575883484180E-007
   37.5131250000000         1.578853172422814E-007
   37.7268750000000         1.621142940677018E-007
   37.9406250000000         1.664855047704777E-007
   38.1543750000000         1.709179405702918E-007
   38.3681250000000         1.753152795381097E-007
   38.5818750000000         1.795757035842785E-007
   38.7956250000000         1.836040800537832E-007
   39.0093750000000         1.873253124056703E-007
   39.2231250000000         1.906973354688656E-007
   39.4368750000000         1.937220520814380E-007
   39.6506250000000         1.964525222936428E-007
   39.8643750000000         1.989949474088320E-007
   40.0781250000000         2.015044355108059E-007
   40.2918750000000         2.041741645665418E-007
   40.5056250000000         2.072183162368612E-007
   40.7193750000000         2.108499611378562E-007
   40.9331250000000         2.152558415275827E-007
   41.1468750000000         2.205706219470158E-007
   41.3606250000000         2.268535729078967E-007
   41.5743750000000         2.340707433751561E-007
   41.7881250000000         2.420854223703488E-007
   42.0018750000000         2.506590781003068E-007
   42.2156250000000         2.594640298887523E-007
   42.4293750000000         2.681079228521844E-007
   42.6431250000000         2.761687481402669E-007
   42.8568750000000         2.832378135456741E-007
   43.0706250000000         2.889668697800610E-007
   43.2843750000000         2.931146826152927E-007
   43.4981250000000         2.955878401525042E-007
   43.7118750000000         2.964705971487135E-007
   43.9256250000000         2.960391377178094E-007
   44.1393750000000         2.947567842600445E-007
   44.3531250000000         2.932483335973097E-007
   44.5668750000000         2.922537434262298E-007
   44.7806250000000         2.925636501723580E-007
   44.9943750000000         2.949414593153281E-007
   45.2081250000000         3.000387728350305E-007
   45.4218750000000         3.083124608379394E-007
   45.6356250000000         3.199525235700983E-007
   45.8493750000000         3.348298462826453E-007
   46.0631250000000         3.524719164475911E-007
   46.2768750000000         3.720725302703192E-007
   46.4906250000000         3.925385547718102E-007
   46.7043750000000         4.125731318369206E-007
   46.9181250000000         4.307906208355047E-007
   47.1318750000000         4.458544761420094E-007
   47.3456250000000         4.566256039471830E-007
   47.5593750000000         4.623060152616912E-007
   47.7731250000000         4.625612308689506E-007
   47.9868750000000         4.576052466067647E-007
   48.2006250000000         4.482341339861838E-007
   48.4143750000000         4.357985334770159E-007
   48.6281250000000         4.221111673351697E-007
   48.8418750000000         4.092925908719584E-007
   49.0556250000000         3.995660296727161E-007
   49.2693750000000         3.950194651130890E-007
   49.4831250000000         3.973591925904889E-007
   49.6968750000000         4.076829717599323E-007
   49.9106250000000         4.263018379755571E-007
   50.1243750000000         4.526371386483183E-007
   50.3381250000000         4.852132517042694E-007
   50.5518750000000         5.217570338907682E-007
   50.7656250000000         5.594030968783214E-007
   50.9793750000000         5.949907150427588E-007
   51.1931250000000         6.254250613103523E-007
   51.4068750000000         6.480642556351798E-007
   51.6206250000000         6.610860808824082E-007
   51.8343750000000         6.637856069936825E-007
   52.0481250000000         6.567583245298260E-007
   52.2618750000000         6.419330155548025E-007
   52.4756250000000         6.224339846668690E-007
   52.6893750000000         6.022721137127398E-007
   52.9031250000000         5.858864196415378E-007
   53.1168750000000         5.775797529076747E-007
   53.3306250000000         5.809110613788061E-007
   53.5443750000000         5.981194314974004E-007
   53.7581250000000         6.296595395093467E-007
   53.9718750000000         6.739226735725958E-007
   54.1856250000000         7.272017334042033E-007
   54.3993750000000         7.839334959639907E-007
   54.6131250000000         8.372192081353462E-007
   54.8268750000000         8.795886564431423E-007
   55.0406250000000         9.039375362985824E-007
   55.2543750000000         9.045378297336081E-007
   55.4681250000000         8.780004160476887E-007
   55.6818750000000         8.240618883137049E-007
   55.8956250000000         7.460757659784460E-007
   56.1093750000000         6.511124357293412E-007
   56.3231250000000         5.496106689907094E-007
   56.5368750000000         4.545729305067320E-007
   56.7506250000000         3.803516919599246E-007
   56.9643750000000         3.411282307574412E-007
   57.1781250000000         3.492321293076282E-007
   57.3918750000000         4.134825110848053E-007
   57.6056250000000         5.377458292042083E-007
   57.8193750000000         7.198966356097443E-007
   58.0331250000000         9.513366113861175E-007
   58.2468750000000         1.217175414415484E-006
   58.4606250000000         1.497109453724729E-006
   58.6743750000000         1.766958606547375E-006
   58.8881250000000         2.000744686078056E-006
   59.1018750000000         2.173128144624041E-006
   59.3156250000000         2.261969423337021E-006
   59.5293750000000         2.250755195575001E-006
   59.7431250000000         2.130631547420069E-006
   59.9568750000000         1.901816733111258E-006
   60.1706250000000         1.574222937968488E-006
   60.3843750000000         1.167193655322166E-006
   60.5981250000000         7.083524228794538E-007
   60.8118750000000         2.316497424154183E-007
   61.0256250000000        -2.252223997970796E-007
   61.2393750000000        -6.238144059629408E-007
   61.4531250000000        -9.280281594696201E-007
   61.6668750000000        -1.107068755839222E-006
   61.8806250000000        -1.137977341478731E-006
   62.0943750000000        -1.007531978395508E-006
   62.3081250000000        -7.133728764576542E-007
   62.5218750000000        -2.642897781381283E-007
   62.7356250000000         3.203075435437952E-007
   62.9493750000000         1.011640049296250E-006
   63.1631250000000         1.773378488596356E-006
   63.3768750000000         2.563843906989368E-006
   63.5906250000000         3.338395049149720E-006
   63.8043750000000         4.051825348419057E-006
   64.0181250000000         4.660629554595507E-006
   64.2318750000000         5.125049739990615E-006
   64.4456250000000         5.410862891935689E-006
   64.6593750000000         5.490917720320265E-006
   64.8731250000000         5.346458138530752E-006
   65.0868750000000         4.968279286903829E-006
   65.3006250000000         4.357746922594151E-006
   65.5143750000000         3.527674794708806E-006
   65.7281250000000         2.503003782834726E-006
   65.9418750000000         1.321171079104513E-006
   66.1556250000000         3.200959850048737E-008
   66.3693750000000        -1.303010559871887E-006
   66.5831250000000        -2.612384814594416E-006
   66.7968750000000        -3.817167962379781E-006
   67.0106250000000        -4.834628000327727E-006
   67.2243750000000        -5.582915950270893E-006
   67.4381250000000        -5.986570999330853E-006
   67.6518750000000        -5.982535559010434E-006
   67.8656250000000        -5.526221785906729E-006
   68.0793750000000        -4.597070568452863E-006
   68.2931250000000        -3.202995203173337E-006
   68.5068750000000        -1.383119630417877E-006
   68.7206250000000         7.916873177408549E-007
   68.9343750000000         3.220816206966780E-006
   69.1481250000000         5.778569311908229E-006
   69.3618750000000         8.321305006930117E-006
   69.5756250000000         1.069664077418730E-005
   69.7893750000000         1.275402458281020E-005
   70.0031250000000         1.435578184093019E-005
   70.2168750000000         1.538762661875446E-005
   70.4306250000000         1.576761327173933E-005
   70.6443750000000         1.545260835743161E-005
   70.8581250000000         1.444157940153403E-005
   71.0718750000000         1.277530865361329E-005
   71.2856250000000         1.053251512678417E-005
   71.4993750000000         7.822765219407026E-006
   71.7131250000000         4.776923603979196E-006
   71.9268750000000         1.536194343879755E-006
   72.1406250000000        -1.759014011631558E-006
   72.3543750000000        -4.979125772643854E-006
   72.5681250000000        -8.013181379937727E-006
   72.7818750000000        -1.077347769176329E-005
   72.9956250000000        -1.319656842609481E-005
   73.2093750000000        -1.524060071718953E-005
   73.4231250000000        -1.687946065642392E-005
   73.6368750000000        -1.809465859531538E-005
   73.8506250000000        -1.886624221213244E-005
   74.0643750000000        -1.916422973589841E-005
   74.2781250000000        -1.894207201776082E-005
   74.4918750000000        -1.813346751700475E-005
   74.7056250000000        -1.665348128692922E-005
   74.9193750000000        -1.440439542007083E-005
   75.1331250000000        -1.128610349336020E-005
   75.3468750000000        -7.210229790769536E-006
   75.5606250000000        -2.116586176877740E-006
   75.7743750000000         4.009847695022001E-006
   75.9881250000000         1.112345873291844E-005
   76.2018750000000         1.910606699449834E-005
   76.4156250000000         2.776026700051712E-005
   76.6293750000000         3.680927665099146E-005
   76.8431250000000         4.590383375900777E-005
   77.0568750000000         5.463588070101725E-005
   77.2706250000000         6.255796495310660E-005
   77.4843750000000         6.920655654305005E-005
   77.6981250000000         7.412693545102876E-005
   77.9118750000000         7.689700724229774E-005
   78.1256250000000         7.714741008518850E-005
   78.3393750000000         7.457559240205727E-005
   78.5531250000000         6.895214210232790E-005
   78.7668750000000         6.011847493321435E-005
   78.9806250000000         4.797595166935596E-005
   79.1943750000000         3.246748400189824E-005
   79.4081250000000         1.355359371489943E-005
   79.6218750000000        -8.814396513172774E-006
   79.8356250000000        -3.472092462321200E-005
   80.0493750000000        -6.430927949777889E-005
   80.2631250000000        -9.779823624973946E-005
   80.4768750000000        -1.354898167986993E-004
   80.6906250000000        -1.777665853885382E-004
   80.9043750000000        -2.250778942996462E-004
   81.1181250000000        -2.779155690839745E-004
   81.3318750000000        -3.367805512852935E-004
   81.5456250000000        -4.021428930832014E-004
   81.7593750000000        -4.743981352471486E-004
   81.9731250000000        -5.538234387087292E-004
   82.1868750000000        -6.405368571028832E-004
   82.4006250000000        -7.344628449940998E-004
   82.6143750000000        -8.353065394652486E-004
   82.8281250000000        -9.425386028069005E-004
   83.0418750000000        -1.055391559233450E-003
   83.2556250000000        -1.172867692231464E-003
   83.4693750000000        -1.293757778760540E-003
   83.6831250000000        -1.416669293772590E-003
   83.8968750000000        -1.540062272043201E-003
   84.1106250000000        -1.662290785755788E-003
   84.3243750000000        -1.781647979936037E-003
   84.5381250000000        -1.896412773693442E-003
   84.7518750000000        -2.004896634828628E-003
   84.9656250000000        -2.105489209414560E-003
   85.1793750000000        -2.196701974621684E-003
   85.3931250000000        -2.277209425779723E-003
   85.6068750000000        -2.345887562559830E-003
   85.8206250000000        -2.401849575269618E-003
   86.0343750000000        -2.444478639414223E-003
   86.2481250000000        -2.473457611017789E-003
   86.4618750000000        -2.488795197691684E-003
   86.6756250000000        -2.490847893138469E-003
   86.8893750000000        -2.480336644514447E-003
   87.1031250000000        -2.458356914236196E-003
   87.3168750000000        -2.426380540885848E-003
   87.5306250000000        -2.386247634915712E-003
   87.7443750000000        -2.340146696065626E-003
   87.9581250000000        -2.290581237423235E-003
   88.1718750000000        -2.240321466652829E-003
   88.3856250000000        -2.192340022548517E-003
   88.5993750000000        -2.149731401832287E-003
   88.8131250000000        -2.115615534842830E-003
   89.0268750000000        -2.093026965230120E-003
   89.2406250000000        -2.084792228385247E-003
   89.4543750000000        -2.093399257883039E-003
   89.6681250000000        -2.120863909556659E-003
   89.8818750000000        -2.168599888474460E-003
   90.0956250000000        -2.237299385568059E-003
   90.3093750000000        -2.326832455203117E-003
   90.5231250000000        -2.436173465833522E-003
   90.7368750000000        -2.563362714783020E-003
   90.9506250000000        -2.705510420179891E-003
   91.1643750000000        -2.858848732016734E-003
   91.3781250000000        -3.018835137448044E-003
   91.5918750000000        -3.180307734655134E-003
   91.8056250000000        -3.337689447550668E-003
   92.0193750000000        -3.485234552907500E-003
   92.2331250000000        -3.617307156133928E-003
   92.4468750000000        -3.728677790351049E-003
   92.6606250000000        -3.814821454488239E-003
   92.8743750000000        -3.872198469249472E-003
   93.0881250000000        -3.898498792386640E-003
   93.3018750000000        -3.892831099643001E-003
   93.5156250000000        -3.855840104943616E-003
   93.7293750000000        -3.789739238813595E-003
   93.9431250000000        -3.698250768803790E-003
   94.1568750000000        -3.586451438264877E-003
   94.3706250000000        -3.460528310997704E-003
   94.5843750000000        -3.327456240797316E-003
   94.7981250000000        -3.194614688618542E-003
   95.0118750000000        -3.069366935481942E-003
   95.2256250000000        -2.958628584247933E-003
   95.4393750000000        -2.868454204056183E-003
   95.6531250000000        -2.803670784973844E-003
   95.8668750000000        -2.767584248206087E-003
   96.0806250000000        -2.761780700963580E-003
   96.2943750000000        -2.786037727446334E-003
   96.5081250000000        -2.838353233651508E-003
   96.7218750000000        -2.915090816189481E-003
   96.9356250000000        -3.011231993468963E-003
   97.1493750000000        -3.120717637990496E-003
   97.3631250000000        -3.236854259861229E-003
   97.5768750000000        -3.352755991887038E-003
   97.7906250000000        -3.461790637233384E-003
   98.0043750000000        -3.557998184808325E-003
   98.2181250000000        -3.636452775844814E-003
   98.4318750000000        -3.693543992386399E-003
   98.6456250000000        -3.727160101537509E-003
   98.8593750000000        -3.736763926188263E-003
   99.0731250000000        -3.723360607286487E-003
   99.2868750000000        -3.689364911591194E-003
   99.5006250000000        -3.638383184732467E-003
   99.7143750000000        -3.574930910990667E-003
   99.9281250000000        -3.504110634974423E-003
   100.141875000000        -3.431276447099756E-003
   100.355625000000        -3.361710285892377E-003
   100.569375000000        -3.300332151129283E-003
   100.783125000000        -3.251461351961311E-003
   100.996875000000        -3.218639704421218E-003
   101.210625000000        -3.204520826160375E-003
   101.424375000000        -3.210823076549359E-003
   101.638125000000        -3.238337946002532E-003
   101.851875000000        -3.286981390772367E-003
   102.065625000000        -3.355873151267914E-003
   102.279375000000        -3.443428683985321E-003
   102.493125000000        -3.547449947152384E-003
   102.706875000000        -3.665204646617324E-003
   102.920625000000        -3.793488208847869E-003
   103.134375000000        -3.928668088946343E-003
   103.348125000000        -4.066715346383425E-003
   103.561875000000        -4.203233025735506E-003
   103.775625000000        -4.333494131474097E-003
   103.989375000000        -4.452503395336621E-003
   104.203125000000        -4.555096313144195E-003
   104.416875000000        -4.636086023799576E-003
   104.630625000000        -4.690463715104037E-003
   104.844375000000        -4.713651803422684E-003
   105.058125000000        -4.701801778567293E-003
   105.271875000000        -4.652121099837613E-003
   105.485625000000        -4.563206703548572E-003
   105.699375000000        -4.435357344088653E-003
   105.913125000000        -4.270833842174254E-003
   106.126875000000        -4.074035878890334E-003
   106.340625000000        -3.851566538387278E-003
   106.554375000000        -3.612161377958214E-003
   106.768125000000        -3.366467118900375E-003
   106.981875000000        -3.126665562648914E-003
   107.195625000000        -2.905950272474654E-003
   107.409375000000        -2.717875982440328E-003
   107.623125000000        -2.575612573479694E-003
   107.836875000000        -2.491145759565073E-003
   108.050625000000        -2.474474408272515E-003
   108.264375000000        -2.532858900164139E-003
   108.478125000000        -2.670175567103616E-003
   108.691875000000        -2.886428784516681E-003
   108.905625000000        -3.177464784938213E-003
   109.119375000000        -3.534920085892107E-003
   109.333125000000        -3.946423256000005E-003
   109.546875000000        -4.396052501759578E-003
   109.760625000000        -4.865034352198861E-003
   109.974375000000        -5.332651764428398E-003
   110.188125000000        -5.777314502428670E-003
   110.401875000000        -6.177731813093610E-003
   110.615625000000        -6.514118235792041E-003
   110.829375000000        -6.769358595388582E-003
   111.043125000000        -6.930058306836628E-003
   111.256875000000        -6.987410187541056E-003
   111.470625000000        -6.937818803594195E-003
   111.684375000000        -6.783237395736926E-003
   111.898125000000        -6.531189759569845E-003
   112.111875000000        -6.194468960544456E-003
   112.325625000000        -5.790525143131190E-003
   112.539375000000        -5.340574559949617E-003
   112.753125000000        -4.868479933988160E-003
   112.966875000000        -4.399467127453102E-003
   113.180625000000        -3.958753787625518E-003
   113.394375000000        -3.570171425863118E-003
   113.608125000000        -3.254862859104816E-003
   113.821875000000        -3.030132079583976E-003
   114.035625000000        -2.908513773121612E-003
   114.249375000000        -2.897115587249010E-003
   114.463125000000        -2.997268863925923E-003
   114.676875000000        -3.204504125435320E-003
   114.890625000000        -3.508847490821421E-003
   115.104375000000        -3.895414782291769E-003
   115.318125000000        -4.345262654227222E-003
   115.531875000000        -4.836441763307281E-003
   115.745625000000        -5.345186661669455E-003
   115.959375000000        -5.847171286471418E-003
   116.173125000000        -6.318757843700072E-003
   116.386875000000        -6.738170398585805E-003
   116.600625000000        -7.086532124212858E-003
   116.814375000000        -7.348716186773125E-003
   117.028125000000        -7.513973721814018E-003
   117.241875000000        -7.576317223910407E-003
   117.455625000000        -7.534652845637681E-003
   117.669375000000        -7.392669549475752E-003
   117.883125000000        -7.158505878767996E-003
   118.096875000000        -6.844225602887360E-003
   118.310625000000        -6.465141170217271E-003
   118.524375000000        -6.039028541953083E-003
   118.738125000000        -5.585278595532729E-003
   118.951875000000        -5.124029113328217E-003
   119.165625000000        -4.675317822691777E-003
   119.379375000000        -4.258291565692777E-003
   119.593125000000        -3.890500056411395E-003
   119.806875000000        -3.587295445295642E-003
   120.020625000000        -3.361351625298765E-003
   120.234375000000        -3.222310368441488E-003
   120.448125000000        -3.176555342754436E-003
   120.661875000000        -3.227110064637590E-003
   120.875625000000        -3.373651993291260E-003
   121.089375000000        -3.612632252946486E-003
   121.303125000000        -3.937488756676091E-003
   121.516875000000        -4.338939614505033E-003
   121.730625000000        -4.805343414032195E-003
   121.944375000000        -5.323113036411422E-003
   122.158125000000        -5.877169913246595E-003
   122.371875000000        -6.451425888857114E-003
   122.585625000000        -7.029280039045849E-003
   122.799375000000        -7.594117891719206E-003
   123.013125000000        -8.129800539709067E-003
   123.226875000000        -8.621131225580163E-003
   123.440625000000        -9.054287236720117E-003
   123.654375000000        -9.417205509047673E-003
   123.868125000000        -9.699911315490604E-003