  -1.60312500000000         2.479367924908491E-020
  -1.38937500000000         3.255310811503701E-018
  -1.17562500000000         3.061895821197854E-017
 -0.961875000000000         1.779610487560037E-016
 -0.748125000000000         8.043598737679093E-016
 -0.534375000000000         3.038253012595555E-015
 -0.320625000000000         9.901145560999221E-015
 -0.106875000000000         2.838768603243313E-014
  0.106875000000000         7.270724008427824E-014
  0.320625000000000         1.686043550476731E-013
  0.534375000000000         3.583428628789821E-013
  0.748125000000000         7.056560288985709E-013
  0.961875000000000         1.299732597433373E-012
   1.17562500000000         2.257157507150422E-012
   1.38937500000000         3.720619321132879E-012
   1.60312500000000         5.853578577860734E-012
   1.81687500000000         8.830619553832975E-012
   2.03062500000000         1.282370161782607E-011
   2.24437500000000         1.798554374747017E-011
   2.45812500000000         2.443191082202527E-011
   2.67187500000000         3.222485062714125E-011
   2.88562500000000         4.135923844898927E-011
   3.09937500000000         5.175502358447146E-011
   3.31312500000000         6.325665422782615E-011
   3.52687500000000         7.564084418798148E-011
   3.74062500000000         8.863235956448364E-011
   3.95437500000000         1.019268477585116E-010
   4.16812500000000         1.152180345262411E-010
   4.38187500000000         1.282260219940309E-010
   4.59562500000000         1.407242190158932E-010
   4.80937500000000         1.525601486890585E-010
   5.02312500000000         1.636680256435780E-010
   5.23687500000000         1.740715387637430E-010
   5.45062500000000         1.838758405035920E-010
   5.66437500000000         1.932508937090601E-010
   5.87812500000000         2.024079751667373E-010
   6.09187500000000         2.115730091077350E-010
   6.30562500000000         2.209608675733455E-010
   6.51937500000000         2.307535648649702E-010
   6.73312500000000         2.410865086429717E-010
   6.94687500000000         2.520437591337695E-010
   7.16062500000000         2.636623375450944E-010
   7.37437500000000         2.759449168152870E-010
   7.58812500000000         2.888778056495813E-010
   7.80187500000000         3.024513629938870E-010
   8.01562500000000         3.166786688939192E-010
   8.22937500000000         3.316093654823926E-010
   8.44312500000000         3.473363155780230E-010
   8.65687500000000         3.639940236645188E-010
   8.87062500000000         3.817487582978210E-010
   9.08437500000000         4.007822971194316E-010
   9.29812500000000         4.212717940247460E-010
   9.51187500000000         4.433684944372495E-010
   9.72562500000000         4.671789755569236E-010
   9.93937500000000         4.927509196807067E-010
   10.1531250000000         5.200655523372243E-010
   10.3668750000000         5.490376265045147E-010
   10.5806250000000         5.795214683705969E-010
   10.7943750000000         6.113222949834991E-010
   11.0081250000000         6.442115727428047E-010
   11.2218750000000         6.779432133076511E-010
   11.4356250000000         7.122691075095773E-010
   11.6493750000000         7.469529860350963E-010
   11.8631250000000         7.817817798643228E-010
   12.0768750000000         8.165746348817878E-010
   12.2906250000000         8.511897844514948E-010
   12.5043750000000         8.855305965817485E-010
   12.7181250000000         9.195505799105224E-010
   12.9318750000000         9.532581696940840E-010
   13.1456250000000         9.867211247729183E-010
   13.3593750000000         1.020068996162694E-009
   13.5731250000000         1.053492871909862E-009
   13.7868750000000         1.087240849493402E-009
   14.0006250000000         1.121608092966768E-009
   14.2143750000000         1.156921156796207E-009
   14.4281250000000         1.193517049174339E-009
   14.6418750000000         1.231718076361336E-009
   14.8556250000000         1.271805726506089E-009
   15.0693750000000         1.313996091215370E-009
   15.2831250000000         1.358420360202986E-009
   15.4968750000000         1.405113212147180E-009
   15.7106250000000         1.454011299684216E-009
   15.9243750000000         1.504962523893043E-009
   16.1381250000000         1.557744628437284E-009
   16.3518750000000         1.612091456683139E-009
   16.5656250000000         1.667722834855052E-009
   16.7793750000000         1.724373720100511E-009
   16.9931250000000         1.781819099029083E-009
   17.2068750000000         1.839891097195833E-009
   17.4206250000000         1.898485397350579E-009
   17.6343750000000         1.957557976263031E-009
   17.8481250000000         2.017113553061416E-009
   18.0618750000000         2.077187900079536E-009
   18.2756250000000         2.137828687937086E-009
   18.4893750000000         2.199079202755445E-009
   18.7031250000000         2.260967870950344E-009
   18.9168750000000         2.323506127146677E-009
   19.1306250000000         2.386695240461475E-009
   19.3443750000000         2.450540060837682E-009
   19.5581250000000         2.515067401213515E-009
   19.7718750000000         2.580344389407785E-009
   19.9856250000000         2.646492540389510E-009
   20.1993750000000         2.713694260912993E-009
   20.4131250000000         2.782188623949337E-009
   20.6268750000000         2.852256546847710E-009
   20.8406250000000         2.924197075933536E-009
   21.0543750000000         2.998297838756657E-009
   21.2681250000000         3.074804437864023E-009
   21.4818750000000         3.153894052074998E-009
   21.6956250000000         3.235657650340228E-009
   21.9093750000000         3.320093833197180E-009
   22.1231250000000         3.407115669628481E-009
   22.3368750000000         3.496569795778753E-009
   22.5506250000000         3.588264589731711E-009
   22.7643750000000         3.682003020520491E-009
   22.9781250000000         3.777615625894881E-009
   23.1918750000000         3.874988914765782E-009
   23.4056250000000         3.974085366507925E-009
   23.6193750000000         4.074953341535093E-009
   23.8331250000000         4.177726528450769E-009
   24.0468750000000         4.282613771734293E-009
   24.2606250000000         4.389882078592203E-009
   24.4743750000000         4.499835125974926E-009
   24.6881250000000         4.612789883768119E-009
   24.9018750000000         4.729053169692664E-009
   25.1156250000000         4.848898753656192E-009
   25.3293750000000         4.972546102322861E-009
   25.5431250000000         5.100140691789088E-009
   25.7568750000000         5.231736329268681E-009
   25.9706250000000         5.367281733461496E-009
   26.1843750000000         5.506614280694955E-009
   26.3981250000000         5.649463698972449E-009
   26.6118750000000         5.795470431763095E-009
   26.8256250000000         5.944221933383820E-009
   27.0393750000000         6.095305594705451E-009
   27.2531250000000         6.248376088984988E-009
   27.4668750000000         6.403229212129831E-009
   27.6806250000000         6.559869127110638E-009
   27.8943750000000         6.718554454979031E-009
   28.1081250000000         6.879806720402690E-009
   28.3218750000000         7.044367767265423E-009
   28.5356250000000         7.213099096450232E-009
   28.7493750000000         7.386825960364663E-009
   28.9631250000000         7.566141380677642E-009
   29.1768750000000         7.751197144095557E-009
   29.3906250000000         7.941519923281804E-009
   29.6043750000000         8.135896141627495E-009
   29.8181250000000         8.332368445549840E-009
   30.0318750000000         8.528375633089310E-009
   30.2456250000000         8.721049929214612E-009
   30.4593750000000         8.907659363012679E-009
   30.6731250000000         9.086152523529626E-009
   30.8868750000000         9.255732864530129E-009
   31.1006250000000         9.417365417785275E-009
   31.3143750000000         9.574108258191815E-009
   31.5281250000000         9.731163859868251E-009
   31.7418750000000         9.895570340576103E-009
   31.9556250000000         1.007549620823161E-008
   32.1693750000000         1.027916180567577E-008
   32.3831250000000         1.051348010106259E-008
   32.5968750000000         1.078257775680008E-008
   32.8106250000000         1.108641453872729E-008
   33.0243750000000         1.141975058593771E-008
   33.2381250000000         1.177170907940332E-008
   33.4518750000000         1.212613911411263E-008
   33.6656250000000         1.246289776150904E-008
   33.8793750000000         1.276004911879956E-008
   34.0931250000000         1.299683206487009E-008
   34.3068750000000         1.315709853425894E-008
   34.5206250000000         1.323279097708482E-008
   34.7343750000000         1.322693568576284E-008
   34.9481250000000         1.315560089061953E-008
   35.1618750000000         1.304831969637669E-008
   35.3756250000000         1.294661325791650E-008
   35.5893750000000         1.290046477641492E-008
   35.8031250000000         1.296287043287183E-008
   36.0168750000000         1.318289709612035E-008
   36.2306250000000         1.359797110375681E-008
   36.4443750000000         1.422635887420212E-008
   36.6581250000000         1.506093939023346E-008
   36.8718750000000         1.606537187026256E-008
   37.0856250000000         1.717360859255069E-008
   37.2993750000000         1.829339252070538E-008
   37.5131250000000         1.931393150709695E-008
   37.7268750000000         2.011739772677523E-008
   37.9406250000000         2.059332515225698E-008
   38.1543750000000         2.065444390089351E-008
   38.3681250000000         2.025207722570027E-008
   38.5818750000000         1.938900705420696E-008
   38.7956250000000         1.812773993308004E-008
   39.0093750000000         1.659241032767829E-008
   39.2231250000000         1.496313374448603E-008
   39.4368750000000         1.346242532111602E-008
   39.6506250000000         1.233425807577551E-008
   39.8643750000000         1.181734085886101E-008
   40.0781250000000         1.211512785429191E-008
   40.2918750000000         1.336580286796573E-008
   40.5056250000000         1.561589841243060E-008
   40.7193750000000         1.880122875022524E-008
   40.9331250000000         2.273838785768363E-008
   41.1468750000000         2.712919621126112E-008
   41.3606250000000         3.157923141085463E-008
   41.5743750000000         3.563005722211031E-008
   41.7881250000000         3.880312216409508E-008
   42.0018750000000         4.065171349334123E-008
   42.2156250000000         4.081601111550283E-008
   42.4293750000000         3.907536433102857E-008
   42.6431250000000         3.539155717775410E-008
   42.8568750000000         2.993712664279293E-008
   43.0706250000000         2.310378729735325E-008
   43.2843750000000         1.548764999401967E-008
   43.4981250000000         7.850092475838225E-009
   43.7118750000000         1.055666819426786E-009
   43.9256250000000        -4.008919037822278E-009
   44.1393750000000        -6.528196773098530E-009
   44.3531250000000        -5.855066277928907E-009
   44.5668750000000        -1.601598654857703E-009
   44.7806250000000         6.287054711341571E-009
   44.9943750000000         1.748566704718762E-008
   45.2081250000000         3.127719654411925E-008
   45.4218750000000         4.658187306448560E-008
   45.6356250000000         6.202897180048176E-008
   45.8493750000000         7.606875526898907E-008
   46.0631250000000         8.711738944485156E-008
   46.2768750000000         9.372313058296824E-008
   46.4906250000000         9.473824927859953E-008
   46.7043750000000         8.947851710805701E-008
   46.9181250000000         7.785109778968178E-008
   47.1318750000000         6.043270903316646E-008
   47.3456250000000         3.848313244370037E-008
   47.5593750000000         1.388450741933972E-008
   47.7731250000000        -1.099595007000360E-008
   47.9868750000000        -3.351367691875254E-008
   48.2006250000000        -5.100985527426653E-008
   48.4143750000000        -6.110635473921447E-008
   48.6281250000000        -6.200220492411141E-008
   48.8418750000000        -5.273716412269922E-008
   49.0556250000000        -3.338742867571754E-008
   49.2693750000000        -5.162192005208973E-009
   49.4831250000000         2.962223777039408E-008
   49.6968750000000         6.770209446799577E-008
   49.9106250000000         1.051559459377446E-007
   50.1243750000000         1.378044765583903E-007
   50.3381250000000         1.616839654794149E-007
   50.5518750000000         1.735434974831634E-007
   50.7656250000000         1.713068564958852E-007
   50.9793750000000         1.544373437006567E-007
   51.1931250000000         1.241486329647265E-007
   51.4068750000000         8.341758964223619E-008
   51.6206250000000         3.677509089708255E-008
   51.8343750000000        -1.012340667270600E-008
   52.0481250000000        -5.111717295644457E-008
   52.2618750000000        -8.029085348060126E-008
   52.4756250000000        -9.277403939663783E-008
   52.6893750000000        -8.549138017621317E-008
   52.9031250000000        -5.775990831594217E-008
   53.1168750000000        -1.163826494206308E-008
   53.3306250000000         4.804603178883245E-008
   53.5443750000000         1.140315277907381E-007
   53.7581250000000         1.773175253220932E-007
   53.9718750000000         2.281688746078524E-007
   54.1856250000000         2.573352570558950E-007
   54.3993750000000         2.573508180845442E-007
   54.6131250000000         2.237547613547407E-007
   54.8268750000000         1.560662647093249E-007
   55.0406250000000         5.836063927594331E-008
   55.2543750000000        -6.067162631787907E-008
   55.4681250000000        -1.882478161869072E-007
   55.6818750000000        -3.085956726765918E-007
   55.8956250000000        -4.045601230043593E-007
   56.1093750000000        -4.595674783338872E-007
   56.3231250000000        -4.597415326844671E-007
   56.5368750000000        -3.959274316509575E-007
   56.7506250000000        -2.653677187117910E-007
   56.9643750000000        -7.279429860186289E-008
   57.1781250000000         1.692497785435431E-007
   57.3918750000000         4.409677190563290E-007
   57.6056250000000         7.167581860232470E-007
   57.8193750000000         9.674638179693741E-007
   58.0331250000000         1.163225213580683E-006
   58.2468750000000         1.276661619505523E-006
   58.4606250000000         1.286042554694478E-006
   58.6743750000000         1.178094110768021E-006
   58.8881250000000         9.501041826354739E-007
   59.1018750000000         6.110520169800328E-007
   59.3156250000000         1.815837449145279E-007
   59.5293750000000        -3.072231015601222E-007
   59.7431250000000        -8.162303215526218E-007
   59.9568750000000        -1.301540606904286E-006
   60.1706250000000        -1.718416556231799E-006
   60.3843750000000        -2.025428105471427E-006
   60.5981250000000        -2.188406813816946E-006
   60.8118750000000        -2.183800754798909E-006
   61.0256250000000        -2.001085727200847E-006
   61.2393750000000        -1.643990081105352E-006
   61.4531250000000        -1.130419531874326E-006
   61.6668750000000        -4.911091976821331E-007
   61.8806250000000         2.328345671197961E-007
   62.0943750000000         9.932268187627588E-007
   62.3081250000000         1.738578246216095E-006
   62.5218750000000         2.417965894740217E-006
   62.7356250000000         2.984631175285085E-006
   62.9493750000000         3.398996362696054E-006
   63.1631250000000         3.630886216826024E-006
   63.3768750000000         3.660857451586840E-006
   63.5906250000000         3.480658342525577E-006
   63.8043750000000         3.092946211569084E-006
   64.0181250000000         2.510466413032879E-006
   64.2318750000000         1.754931783251860E-006
   64.4456250000000         8.558315329348575E-007
   64.6593750000000        -1.506543939296544E-007
   64.8731250000000        -1.222546043079391E-006
   65.0868750000000        -2.312774774120681E-006
   65.3006250000000        -3.369835069462053E-006
   65.5143750000000        -4.338580443881759E-006
   65.7281250000000        -5.161412200243973E-006
   65.9418750000000        -5.780103355167790E-006
   66.1556250000000        -6.138436582400943E-006
   66.3693750000000        -6.185717925368191E-006
   66.5831250000000        -5.881069947386754E-006
   66.7968750000000        -5.198229674229918E-006
   67.0106250000000        -4.130404650037738E-006
   67.2243750000000        -2.694603506440084E-006
   67.4381250000000        -9.347827105018011E-007
   67.6518750000000         1.076840265319571E-006
   67.8656250000000         3.240853779082056E-006
   68.0793750000000         5.434448146744760E-006
   68.2931250000000         7.518013890140230E-006
   68.5068750000000         9.344286598629781E-006
   68.7206250000000         1.076944055528571E-005
   68.9343750000000         1.166522103898784E-005
   69.1481250000000         1.193096795313082E-005
   69.3618750000000         1.150426073047741E-005
   69.5756250000000         1.036893468042127E-005
   69.7893750000000         8.559394308170851E-006
   70.0031250000000         6.160472598700133E-006
   70.2168750000000         3.302529662711317E-006
   70.4306250000000         1.520040670812745E-007
   70.6443750000000        -3.101833614515263E-006
   70.8581250000000        -6.262689365657144E-006
   71.0718750000000        -9.144009999414700E-006
   71.2856250000000        -1.158489692211967E-005
   71.4993750000000        -1.346337198316933E-005
   71.7131250000000        -1.470542894860244E-005
   71.9268750000000        -1.528874296049279E-005
   72.1406250000000        -1.524051489245248E-005
   72.3543750000000        -1.462963127089255E-005
   72.5681250000000        -1.355403957688705E-005
   72.7818750000000        -1.212488197931405E-005
   72.9956250000000        -1.044941058579267E-005
   73.2093750000000        -8.614952585565017E-006
   73.4231250000000        -6.676158779241682E-006
   73.6368750000000        -4.647442235575211E-006
   73.8506250000000        -2.501920796685314E-006
   74.0643750000000        -1.773796622893137E-007
   74.2781250000000         2.411139693318180E-006
   74.4918750000000         5.353428610132508E-006
   74.7056250000000         8.722975665342262E-006
   74.9193750000000         1.255526969255922E-005
   75.1331250000000         1.682845761239951E-005
   75.3468750000000         2.144916331341080E-005
   75.5606250000000         2.624579528840302E-005
   75.7743750000000         3.097086528607021E-005
   75.9881250000000         3.531279368298517E-005
   76.2018750000000         3.891651056748580E-005
   76.4156250000000         4.141101674033454E-005
   76.6293750000000         4.244109183272782E-005
   76.8431250000000         4.169965859654955E-005
   77.0568750000000         3.895703203297463E-005
   77.2706250000000         3.408345226206798E-005
   77.4843750000000         2.706191929338576E-005
   77.6981250000000         1.798935836081004E-005
   77.9118750000000         7.065437740725179E-006
   78.1256250000000        -5.430210152608701E-006
   78.3393750000000        -1.917021750376749E-005
   78.5531250000000        -3.381781864056875E-005
   78.7668750000000        -4.906711212391678E-005
   78.9806250000000        -6.468068054108302E-005
   79.1943750000000        -8.052013556597288E-005
   79.4081250000000        -9.656580237443345E-005
   79.6218750000000        -1.129228499137135E-004
   79.8356250000000        -1.298125917768573E-004
   80.0493750000000        -1.475492669626413E-004
   80.2631250000000        -1.665041808208629E-004
   80.4768750000000        -1.870604658217446E-004
   80.6906250000000        -2.095627543881940E-004
   80.9043750000000        -2.342666285273251E-004
   81.1181250000000        -2.612927648786866E-004
   81.3318750000000        -2.905902315771221E-004
   81.5456250000000        -3.219124771037510E-004
   81.7593750000000        -3.548082938609008E-004
   81.9731250000000        -3.886285891362395E-004
   82.1868750000000        -4.225483187961813E-004
   82.4006250000000        -4.556015961692691E-004
   82.6143750000000        -4.867269188603816E-004
   82.8281250000000        -5.148187596916927E-004
   83.0418750000000        -5.387814957299683E-004
   83.2556250000000        -5.575818000633675E-004
   83.4693750000000        -5.702961439558482E-004
   83.6831250000000        -5.761508614799260E-004
   83.8968750000000        -5.745531976215099E-004
   84.1106250000000        -5.651127670007836E-004
   84.3243750000000        -5.476537729535707E-004
   84.5381250000000        -5.222190757721339E-004
   84.7518750000000        -4.890676858973476E-004
   84.9656250000000        -4.486674615042357E-004
   85.1793750000000        -4.016847166436561E-004
   85.3931250000000        -3.489721355278254E-004
   85.6068750000000        -2.915559052395331E-004
   85.8206250000000        -2.306224019985763E-004
   86.0343750000000        -1.675041771886975E-004
   86.2481250000000        -1.036644638069283E-004
   86.4618750000000        -4.067902250451090E-005
   86.6756250000000         1.978608930347709E-005
   86.8893750000000         7.600228982987140E-005
   87.1031250000000         1.262131079031550E-004
   87.3168750000000         1.686766767730649E-004
   87.5306250000000         2.017165960706945E-004
   87.7443750000000         2.237810467660266E-004
   87.9581250000000         2.335093085679436E-004
   88.1718750000000         2.298040114028489E-004
   88.3856250000000         2.119065843755401E-004
   88.5993750000000         1.794724858612608E-004
   88.8131250000000         1.326419569641250E-004
   89.0268750000000         7.210130165516480E-005
   89.2406250000000        -8.708600068218705E-007
   89.4543750000000        -8.437820157055601E-005
   89.6681250000000        -1.759079078161865E-004
   89.8818750000000        -2.723636865763753E-004
   90.0956250000000        -3.701346590144034E-004
   90.3093750000000        -4.652025269367541E-004
   90.5231250000000        -5.532871569120525E-004
   90.7368750000000        -6.300279633833224E-004
   90.9506250000000        -6.911953619502108E-004
   91.1643750000000        -7.329233152471448E-004
   91.3781250000000        -7.519508833646799E-004
   91.5918750000000        -7.458580353277803E-004
   91.8056250000000        -7.132791070230834E-004
   92.0193750000000        -6.540765113058610E-004
   92.2331250000000        -5.694578653650228E-004
   92.4468750000000        -4.620217505364057E-004
   92.6606250000000        -3.357208863121038E-004
   92.8743750000000        -1.957364629202371E-004
   93.0881250000000        -4.826346290883561E-005
   93.3018750000000         9.978640337550068E-005
   93.5156250000000         2.411505516477360E-004
   93.7293750000000         3.686300260580706E-004
   93.9431250000000         4.755270188274095E-004
   94.1568750000000         5.560759246925999E-004
   94.3706250000000         6.058367192223658E-004
   94.5843750000000         6.220201693079829E-004
   94.7981250000000         6.037176732523364E-004
   95.0118750000000         5.520142792294963E-004
   95.2256250000000         4.699713015807190E-004
   95.4393750000000         3.624743842668759E-004
   95.6531250000000         2.359531130996465E-004
   95.8668750000000         9.798850060880189E-005
   96.0806250000000        -4.316603331052066E-005
   96.2943750000000        -1.791170355273117E-004
   96.5081250000000        -3.018785701594024E-004
   96.7218750000000        -4.043947598069132E-004
   96.9356250000000        -4.809984135696225E-004
   97.1493750000000        -5.277713833737252E-004
   97.3631250000000        -5.427797751965952E-004
   97.5768750000000        -5.261669646132355E-004
   97.7906250000000        -4.800986968918983E-004
   98.0043750000000        -4.085664061086004E-004
   98.2181250000000        -3.170662165569000E-004
   98.4318750000000        -2.121808788133243E-004
   98.6456250000000        -1.010992603552402E-004
   98.8593750000000         8.887705850342271E-006
   99.0731250000000         1.108748879463642E-004
   99.2868750000000         1.987775966175895E-004
   99.5006250000000         2.676818727497701E-004
   99.7143750000000         3.140878356913350E-004
   99.9281250000000         3.360338336629531E-004
   100.141875000000         3.331002317708610E-004
   100.355625000000         3.063024467145484E-004
   100.569375000000         2.578922431136162E-004
   100.783125000000         1.910934425919691E-004
   100.996875000000         1.098023995343545E-004
   101.210625000000         1.828450964178063E-005
   101.424375000000        -7.910437389978915E-005
   101.638125000000        -1.781481034456281E-004
   101.851875000000        -2.749361526675577E-004
   102.065625000000        -3.659585806151017E-004
   102.279375000000        -4.481328558701058E-004
   102.493125000000        -5.187741815953285E-004
   102.706875000000        -5.755280975332956E-004
   102.920625000000        -6.162887539860114E-004
   103.134375000000        -6.391278071007205E-004
   103.348125000000        -6.422571620799162E-004
   103.561875000000        -6.240439417325613E-004
   103.775625000000        -5.830885838622533E-004
   103.989375000000        -5.183676764212812E-004
   104.203125000000        -4.294330490361487E-004
   104.416875000000        -3.166488934733213E-004
   104.630625000000        -1.814404201710212E-004
   104.844375000000        -2.652178587895550E-005
   105.058125000000         1.439314703744377E-004
   105.271875000000         3.241990058917354E-004
   105.485625000000         5.070497210501972E-004
   105.699375000000         6.839131260218000E-004
   105.913125000000         8.451964098206360E-004
   106.126875000000         9.807422310806435E-004
   106.340625000000         1.080408189314898E-003
   106.554375000000         1.134735484179899E-003
   106.768125000000         1.135662725869715E-003
   106.981875000000         1.077232389299934E-003
   107.195625000000         9.562329361604345E-004
   107.409375000000         7.727197637308962E-004
   107.623125000000         5.303630944450319E-004
   107.836875000000         2.365805034086083E-004
   108.050625000000        -9.757459789254712E-005
   108.264375000000        -4.577804884938034E-004
   108.478125000000        -8.270640569650060E-004
   108.691875000000        -1.186641445227122E-003
   108.905625000000        -1.516938716667663E-003
   109.119375000000        -1.798733265641631E-003
   109.333125000000        -2.014344832438531E-003
   109.546875000000        -2.148797885845268E-003
   109.760625000000        -2.190875468231160E-003
   109.974375000000        -2.133988655508323E-003
   110.188125000000        -1.976795435474177E-003
   110.401875000000        -1.723517504943560E-003
   110.615625000000        -1.383922297766016E-003
   110.829375000000        -9.729592305136473E-004
   111.043125000000        -5.100622038654308E-004
   111.256875000000        -1.815320878963047E-005
   111.470625000000         4.775971738108231E-004
   111.684375000000         9.511790503493453E-004
   111.898125000000         1.377236105713382E-003
   112.111875000000         1.732548810382821E-003
   112.325625000000         1.997413802561023E-003
   112.539375000000         2.156830898580205E-003
   112.753125000000         2.201420894728695E-003
   112.966875000000         2.128014377456462E-003
   113.180625000000         1.939872986175390E-003
   113.394375000000         1.646528487767718E-003
   113.608125000000         1.263249932816722E-003
   113.821875000000         8.101733005455090E-004
   114.035625000000         3.111496896724315E-004
   114.249375000000        -2.076142474954543E-004
   114.463125000000        -7.190375162252858E-004
   114.676875000000        -1.196675150632744E-003
   114.890625000000        -1.616165279196377E-003
   115.104375000000        -1.956526698025269E-003
   115.318125000000        -2.201232704129835E-003
   115.531875000000        -2.339003526180656E-003
   115.745625000000        -2.364279586348864E-003
   115.959375000000        -2.277359490130107E-003
   116.173125000000        -2.084208449390385E-003
   116.386875000000        -1.795963229269673E-003
   116.600625000000        -1.428177282309514E-003
   116.814375000000        -9.998633862015444E-004
   117.028125000000        -5.324000868708425E-004
   117.241875000000        -4.837221947054761E-005
   117.455625000000         4.295852033559195E-004
   117.669375000000         8.798759458939996E-004
   117.883125000000         1.282909816581042E-003
   118.096875000000         1.621905750995842E-003
   118.310625000000         1.883501896922279E-003
   118.524375000000         2.058158069437523E-003
   118.738125000000         2.140349540642957E-003
   118.951875000000         2.128563211323871E-003
   119.165625000000         2.025117070492255E-003
   119.379375000000         1.835831032234812E-003
   119.593125000000         1.569581568180427E-003
   119.806875000000         1.237774107865796E-003
   120.020625000000         8.537662616471505E-004
   120.234375000000         4.322720059516637E-004
   120.448125000000        -1.122735952304300E-005
   120.661875000000        -4.610447965773894E-004
   120.875625000000        -9.018062884418592E-004
   121.089375000000        -1.318916405578554E-003
   121.303125000000        -1.698964588441058E-003
   121.516875000000        -2.030069373932396E-003
   121.730625000000        -2.302160051243006E-003
   121.944375000000        -2.507196489390413E-003
   122.158125000000        -2.639328309814485E-003
   122.371875000000        -2.694994446314040E-003
   122.585625000000        -2.672963749385005E-003
   122.799375000000        -2.574316960615726E-003
   123.013125000000        -2.402370371604577E-003
   123.226875000000        -2.162541981312373E-003
   123.440625000000        -1.862162066590675E-003
   123.654375000000        -1.510231763205831E-003
   123.868125000000        -1.117135392278508E-003