  -1.60312500000000         4.068216598796556E-017
  -1.38937500000000         2.308796436152099E-011
  -1.17562500000000         1.710418593854936E-010
 -0.961875000000000         8.574403210821820E-010
 -0.748125000000000         3.450371532453031E-009
 -0.534375000000000         1.168681054044355E-008
 -0.320625000000000         3.408235316547385E-008
 -0.106875000000000         8.703268939958358E-008
  0.106875000000000         1.976725347701637E-007
  0.320625000000000         4.053989735893271E-007
  0.534375000000000         7.614710294723033E-007
  0.748125000000000         1.326373786013454E-006
  0.961875000000000         2.164718864219000E-006
   1.17562500000000         3.337145930599251E-006
   1.38937500000000         4.889321577674006E-006
   1.60312500000000         6.839069297279347E-006
   1.81687500000000         9.163930397505165E-006
   2.03062500000000         1.179098719504945E-005
   2.24437500000000         1.459191894701752E-005
   2.45812500000000         1.738723674567526E-005
   2.67187500000000         1.994348103378777E-005
   2.88562500000000         2.201348975251223E-005
   3.09937500000000         2.332903139848212E-005
   3.31312500000000         2.366733460675957E-005
   3.52687500000000         2.282524277376687E-005
   3.74062500000000         2.071264520508587E-005
   3.95437500000000         1.728738201125056E-005
   4.16812500000000         1.262892574927202E-005
   4.38187500000000         6.888571180881067E-006
   4.59562500000000         2.860223686454192E-007
   4.80937500000000        -6.929222943937693E-006
   5.02312500000000        -1.450785865585413E-005
   5.23687500000000        -2.223267849493426E-005
   5.45062500000000        -2.995162680245141E-005
   5.66437500000000        -3.756075398314766E-005
   5.87812500000000        -4.505339507310624E-005
   6.09187500000000        -5.241201440954808E-005
   6.30562500000000        -5.966382770902832E-005
   6.51937500000000        -6.674541345196957E-005
   6.73312500000000        -7.355568681672915E-005
   6.94687500000000        -7.982947438360463E-005
   7.16062500000000        -8.523286247554740E-005
   7.37437500000000        -8.928939294907854E-005
   7.58812500000000        -9.149781841772204E-005
   7.80187500000000        -9.136211199016749E-005
   8.01562500000000        -8.848372860311514E-005
   8.22937500000000        -8.264303872399570E-005
   8.44312500000000        -7.386240999109190E-005
   8.65687500000000        -6.242557889135614E-005
   8.87062500000000        -4.888489394259301E-005
   9.08437500000000        -3.397674675717919E-005
   9.29812500000000        -1.860208474816214E-005
   9.51187500000000        -3.637596495323936E-006
   9.72562500000000         1.010540588712098E-005
   9.93937500000000         2.206185709835786E-005
   10.1531250000000         3.190307099543637E-005
   10.3668750000000         3.965644232345130E-005
   10.5806250000000         4.558448922260367E-005
   10.7943750000000         5.020632781154413E-005
   11.0081250000000         5.410645210137697E-005
   11.2218750000000         5.789220723134789E-005
   11.4356250000000         6.200186329201289E-005
   11.6493750000000         6.669093322654599E-005
   11.8631250000000         7.193878872807301E-005
   12.0768750000000         7.749583068875696E-005
   12.2906250000000         8.294631773169852E-005
   12.5043750000000         8.780088586277867E-005
   12.7181250000000         9.166749108726985E-005
   12.9318750000000         9.432331220382200E-005
   13.1456250000000         9.583334652547712E-005
   13.3593750000000         9.658067161292433E-005
   13.5731250000000         9.723903005726777E-005
   13.7868750000000         9.868433451128047E-005
   14.0006250000000         1.018595829886830E-004
   14.2143750000000         1.076144473158680E-004
   14.4281250000000         1.165529692105040E-004
   14.6418750000000         1.288989645555035E-004
   14.8556250000000         1.444430972934833E-004
   15.0693750000000         1.625556793720822E-004
   15.2831250000000         1.822296076227698E-004
   15.4968750000000         2.022339993517415E-004
   15.7106250000000         2.212782237109427E-004
   15.9243750000000         2.381895344181073E-004
   16.1381250000000         2.520696056948068E-004
   16.3518750000000         2.623957545899182E-004
   16.5656250000000         2.690701137321508E-004
   16.7793750000000         2.723867066046178E-004
   16.9931250000000         2.729559438145061E-004
   17.2068750000000         2.715700848464692E-004
   17.4206250000000         2.690410018254126E-004
   17.6343750000000         2.660510332733642E-004
   17.8481250000000         2.631012966435376E-004
   18.0618750000000         2.603764332480064E-004
   18.2756250000000         2.578159092402238E-004
   18.4893750000000         2.551237750352392E-004
   18.7031250000000         2.518852498457277E-004
   18.9168750000000         2.476725630697807E-004
   19.1306250000000         2.421599418448576E-004
   19.3443750000000         2.352144856611560E-004
   19.5581250000000         2.269490436140267E-004
   19.7718750000000         2.177313894267184E-004
   19.9856250000000         2.081500489313408E-004
   20.1993750000000         1.989446607898013E-004
   20.4131250000000         1.909161238665840E-004
   20.6268750000000         1.848296001296894E-004
   20.8406250000000         1.813289309240845E-004
   21.0543750000000         1.808685084792985E-004
   21.2681250000000         1.836848869191208E-004
   21.4818750000000         1.897694180153407E-004
   21.6956250000000         1.988992506790986E-004
   21.9093750000000         2.106600406955839E-004
   22.1231250000000         2.245018602138681E-004
   22.3368750000000         2.397851492180677E-004
   22.5506250000000         2.558401794543048E-004
   22.7643750000000         2.720003530215512E-004
   22.9781250000000         2.876459648046688E-004
   23.1918750000000         3.022381605976819E-004
   23.4056250000000         3.153328862127187E-004
   23.6193750000000         3.266182943183673E-004
   23.8331250000000         3.359148923996392E-004
   24.0468750000000         3.431829102580154E-004
   24.2606250000000         3.485166135630784E-004
   24.4743750000000         3.521293885632883E-004
   24.6881250000000         3.543346671237795E-004
   24.9018750000000         3.554826650016920E-004
   25.1156250000000         3.559969341486483E-004
   25.3293750000000         3.562553836392763E-004
   25.5431250000000         3.566586408523690E-004
   25.7568750000000         3.575419146365608E-004
   25.9706250000000         3.592195872490314E-004
   26.1843750000000         3.619857707180060E-004
   26.3981250000000         3.661263094868389E-004
   26.6118750000000         3.719382681055350E-004
   26.8256250000000         3.797372256696849E-004
   27.0393750000000         3.898493861030121E-004
   27.2531250000000         4.025796616207595E-004
   27.4668750000000         4.182039570700603E-004
   27.6806250000000         4.368666489726714E-004
   27.8943750000000         4.585544187546406E-004
   28.1081250000000         4.830438545870134E-004
   28.3218750000000         5.098713324478990E-004
   28.5356250000000         5.383384286122865E-004
   28.7493750000000         5.675469943758338E-004
   28.9631250000000         5.964679373482947E-004
   29.1768750000000         6.240350342492662E-004
   29.3906250000000         6.492510080016775E-004
   29.6043750000000         6.712908154839827E-004
   29.8181250000000         6.895873352115938E-004
   30.0318750000000         7.038781350243342E-004
   30.2456250000000         7.142258221097015E-004
   30.4593750000000         7.209776869183295E-004
   30.6731250000000         7.247193905147791E-004
   30.8868750000000         7.261745233190189E-004
   31.1006250000000         7.261027609021630E-004
   31.3143750000000         7.252162364896194E-004
   31.5281250000000         7.240840352696856E-004
   31.7418750000000         7.231436016876597E-004
   31.9556250000000         7.226208725956830E-004
   32.1693750000000         7.226292838521443E-004
   32.3831250000000         7.231396976873240E-004
   32.5968750000000         7.241022242600396E-004
   32.8106250000000         7.254567473729484E-004
   33.0243750000000         7.271739477630145E-004
   33.2381250000000         7.293074749945542E-004
   33.4518750000000         7.319543712900011E-004
   33.6656250000000         7.352478530111443E-004
   33.8793750000000         7.393167977918878E-004
   34.0931250000000         7.442427071407641E-004
   34.3068750000000         7.500241295251167E-004
   34.5206250000000         7.565586824482025E-004
   34.7343750000000         7.636416460976811E-004
   34.9481250000000         7.709842764827726E-004
   35.1618750000000         7.782555808937377E-004
   35.3756250000000         7.851338358173942E-004
   35.5893750000000         7.913650197329446E-004
   35.8031250000000         7.967890457573605E-004
   36.0168750000000         8.014157223150960E-004
   36.2306250000000         8.053844777177672E-004
   36.4443750000000         8.090126956366298E-004
   36.6581250000000         8.126942789264619E-004
   36.8718750000000         8.169296424099660E-004
   37.0856250000000         8.221754701999420E-004
   37.2993750000000         8.288737606794550E-004
   37.5131250000000         8.372982453697319E-004
   37.7268750000000         8.475945850203961E-004
   37.9406250000000         8.596972742592674E-004
   38.1543750000000         8.733492971361372E-004
   38.3681250000000         8.881229762498667E-004
   38.5818750000000         9.034648573571110E-004
   38.7956250000000         9.187608074272956E-004
   39.0093750000000         9.334094753591247E-004
   39.2231250000000         9.469041927602771E-004
   39.4368750000000         9.588818561541694E-004
   39.6506250000000         9.692149362233267E-004
   39.8643750000000         9.779993395853585E-004
   40.0781250000000         9.855700055863188E-004
   40.2918750000000         9.924613333938282E-004
   40.5056250000000         9.993455311020083E-004
   40.7193750000000         1.006949842659132E-003
   40.9331250000000         1.015960573850308E-003
   41.1468750000000         1.026934594706791E-003
   41.3606250000000         1.040221252281088E-003
   41.5743750000000         1.055936592493380E-003
   41.7881250000000         1.073939441161134E-003
   42.0018750000000         1.093860248301581E-003
   42.2156250000000         1.115163305149134E-003
   42.4293750000000         1.137230903809117E-003
   42.6431250000000         1.159454772423585E-003
   42.8568750000000         1.181319283274676E-003
   43.0706250000000         1.202464421055361E-003
   43.2843750000000         1.222720324742791E-003
   43.4981250000000         1.242075289201788E-003
   43.7118750000000         1.260684742830862E-003
   43.9256250000000         1.278743339457492E-003
   44.1393750000000         1.296446959641081E-003
   44.3531250000000         1.313900670295893E-003
   44.5668750000000         1.331066733153979E-003
   44.7806250000000         1.347742686696089E-003
   44.9943750000000         1.363578422021601E-003
   45.2081250000000         1.378129554341653E-003
   45.4218750000000         1.390932975579481E-003
   45.6356250000000         1.401605829963852E-003
   45.8493750000000         1.409928534492168E-003
   46.0631250000000         1.415910026200589E-003
   46.2768750000000         1.419813290264627E-003
   46.4906250000000         1.422138994580705E-003
   46.7043750000000         1.423565586332504E-003
   46.9181250000000         1.424856951408469E-003
   47.1318750000000         1.426752024870026E-003
   47.3456250000000         1.429856518357811E-003
   47.5593750000000         1.434555778803741E-003
   47.7731250000000         1.440964269695656E-003
   47.9868750000000         1.448921675371984E-003
   48.2006250000000         1.458035798265133E-003
   48.4143750000000         1.467767818553976E-003
   48.6281250000000         1.477534030623385E-003
   48.8418750000000         1.486827381577322E-003
   49.0556250000000         1.495315212536369E-003
   49.2693750000000         1.502908595225274E-003
   49.4831250000000         1.509794338709851E-003
   49.6968750000000         1.516380162375068E-003
   49.9106250000000         1.523275715701032E-003
   50.1243750000000         1.531163038423129E-003
   50.3381250000000         1.540692144684551E-003
   50.5518750000000         1.552367946050463E-003
   50.7656250000000         1.566463520376662E-003
   50.9793750000000         1.582963645438808E-003
   51.1931250000000         1.601570041990913E-003
   51.4068750000000         1.621723997892181E-003
   51.6206250000000         1.642690089046716E-003
   51.8343750000000         1.663659453275471E-003
   52.0481250000000         1.683861491890647E-003
   52.2618750000000         1.702667208725280E-003
   52.4756250000000         1.719671171467131E-003
   52.6893750000000         1.734731853622023E-003
   52.9031250000000         1.747969672367702E-003
   53.1168750000000         1.759729378905233E-003
   53.3306250000000         1.770519851228864E-003
   53.5443750000000         1.780910986246934E-003
   53.7581250000000         1.791442261942226E-003
   53.9718750000000         1.802538132921127E-003
   54.1856250000000         1.814456599339580E-003
   54.3993750000000         1.827244990488991E-003
   54.6131250000000         1.840775653933220E-003
   54.8268750000000         1.854767583799726E-003
   55.0406250000000         1.868869384949147E-003
   55.2543750000000         1.882734893114644E-003
   55.4681250000000         1.896101335070920E-003
   55.6818750000000         1.908848729890499E-003
   55.8956250000000         1.921029566769086E-003
   56.1093750000000         1.932863170883746E-003
   56.3231250000000         1.944695473516375E-003
   56.5368750000000         1.956933605811499E-003
   56.7506250000000         1.969956589451372E-003
   56.9643750000000         1.984046652124292E-003
   57.1781250000000         1.999304886825201E-003
   57.3918750000000         2.015616997907230E-003
   57.6056250000000         2.032677744781974E-003
   57.8193750000000         2.049969867486485E-003
   58.0331250000000         2.066918754567161E-003
   58.2468750000000         2.082895070755651E-003
   58.4606250000000         2.097406175940939E-003
   58.6743750000000         2.110092076545600E-003
   58.8881250000000         2.120874490278557E-003
   59.1018750000000         2.129885172177744E-003
   59.3156250000000         2.137529697862341E-003
   59.5293750000000         2.144356517761730E-003
   59.7431250000000         2.151001857625194E-003
   59.9568750000000         2.158099031335855E-003
   60.1706250000000         2.166140479770873E-003
   60.3843750000000         2.175460757397083E-003
   60.5981250000000         2.186148317734293E-003
   60.8118750000000         2.198115993986453E-003
   61.0256250000000         2.211074634611253E-003
   61.2393750000000         2.224687339958555E-003
   61.4531250000000         2.238579396661350E-003
   61.6668750000000         2.252495148189849E-003
   61.8806250000000         2.266302953844359E-003
   62.0943750000000         2.280059682745044E-003
   62.3081250000000         2.293994434720552E-003
   62.5218750000000         2.308468608098751E-003
   62.7356250000000         2.323907842146757E-003
   62.9493750000000         2.340725309118618E-003
   63.1631250000000         2.359217641469779E-003
   63.3768750000000         2.379575720279152E-003
   63.5906250000000         2.401767136763619E-003
   63.8043750000000         2.425623834927385E-003
   64.0181250000000         2.450789255178139E-003
   64.2318750000000         2.476830714110902E-003
   64.4456250000000         2.503253636141915E-003
   64.6593750000000         2.529558269011052E-003
   64.8731250000000         2.555275643078548E-003
   65.0868750000000         2.579980044238781E-003
   65.3006250000000         2.603286873106974E-003
   65.5143750000000         2.624839239045241E-003
   65.7281250000000         2.644294607635068E-003
   65.9418750000000         2.661320051148119E-003
   66.1556250000000         2.675605591620693E-003
   66.3693750000000         2.686898417551771E-003
   66.5831250000000         2.695051754186460E-003
   66.7968750000000         2.700078930615724E-003
   67.0106250000000         2.702219178541321E-003
   67.2243750000000         2.701949392016997E-003
   67.4381250000000         2.700006276725089E-003
   67.6518750000000         2.697332921658995E-003
   67.8656250000000         2.695005788009684E-003
   68.0793750000000         2.694124552206392E-003
   68.2931250000000         2.695703022464681E-003
   68.5068750000000         2.700529314552960E-003
   68.7206250000000         2.709102710397124E-003
   68.9343750000000         2.721564513387011E-003
   69.1481250000000         2.737708369091439E-003
   69.3618750000000         2.757030344126766E-003
   69.5756250000000         2.778830940383278E-003
   69.7893750000000         2.802320094401998E-003
   70.0031250000000         2.826738534917099E-003
   70.2168750000000         2.851453839542497E-003
   70.4306250000000         2.876003927049324E-003
   70.6443750000000         2.900128456572271E-003
   70.8581250000000         2.923718134832458E-003
   71.0718750000000         2.946742212396527E-003
   71.2856250000000         2.969169107595920E-003
   71.4993750000000         2.990878115628305E-003
   71.7131250000000         3.011611013982147E-003
   71.9268750000000         3.030947502133974E-003
   72.1406250000000         3.048360472945291E-003
   72.3543750000000         3.063260798631820E-003
   72.5681250000000         3.075130542160817E-003
   72.7818750000000         3.083629450243081E-003
   72.9956250000000         3.088693288105879E-003
   73.2093750000000         3.090599216744429E-003
   73.4231250000000         3.089975497118632E-003
   73.6368750000000         3.087756066235481E-003
   73.8506250000000         3.085083572711352E-003
   74.0643750000000         3.083177069291977E-003
   74.2781250000000         3.083186459018619E-003
   74.4918750000000         3.086058157903570E-003
   74.7056250000000         3.092428397807870E-003
   74.9193750000000         3.102604414451688E-003
   75.1331250000000         3.116526001193588E-003
   75.3468750000000         3.133857282062199E-003
   75.5606250000000         3.154068857190367E-003
   75.7743750000000         3.176558779646963E-003
   75.9881250000000         3.200761686906902E-003
   76.2018750000000         3.226242053580949E-003
   76.4156250000000         3.252715658911997E-003
   76.6293750000000         3.280098833386185E-003
   76.8431250000000         3.308422454536509E-003
   77.0568750000000         3.337787380903233E-003
   77.2706250000000         3.368261990018159E-003
   77.4843750000000         3.399806927415171E-003
   77.6981250000000         3.432183374737820E-003
   77.9118750000000         3.464983093155727E-003
   78.1256250000000         3.497569000379636E-003
   78.3393750000000         3.529178967043702E-003
   78.5531250000000         3.558972896450549E-003
   78.7668750000000         3.586131823452894E-003
   78.9806250000000         3.609951826389084E-003
   79.1943750000000         3.629922579573922E-003
   79.4081250000000         3.645780797099775E-003
   79.6218750000000         3.657531332654973E-003
   79.8356250000000         3.665437900807655E-003
   80.0493750000000         3.669984518095896E-003
   80.2631250000000         3.671818676588434E-003
   80.4768750000000         3.671683775319156E-003
   80.6906250000000         3.670351469775283E-003
   80.9043750000000         3.668568274650632E-003
   81.1181250000000         3.667009560887652E-003
   81.3318750000000         3.666252500114008E-003
   81.5456250000000         3.666762640944825E-003
   81.7593750000000         3.668892210670324E-003
   81.9731250000000         3.672884297771120E-003
   82.1868750000000         3.678877943838445E-003
   82.4006250000000         3.686917274660893E-003
   82.6143750000000         3.696936052634566E-003
   82.8281250000000         3.708790312281384E-003
   83.0418750000000         3.722200253386081E-003
   83.2556250000000         3.736810719029889E-003
   83.4693750000000         3.752115414554788E-003
   83.6831250000000         3.767540510439632E-003
   83.8968750000000         3.782408482700453E-003
   84.1106250000000         3.795988707509728E-003
   84.3243750000000         3.807536536844403E-003
   84.5381250000000         3.816344720154782E-003
   84.7518750000000         3.821800028517312E-003
   84.9656250000000         3.823440234807062E-003
   85.1793750000000         3.821005106255693E-003
   85.3931250000000         3.814474217925573E-003
   85.6068750000000         3.804087410377740E-003
   85.8206250000000         3.790341555296871E-003
   86.0343750000000         3.773960631712543E-003
   86.2481250000000         3.755851055380960E-003
   86.4618750000000         3.737028489864426E-003
   86.6756250000000         3.718535354272830E-003
   86.8893750000000         3.701353089121184E-003
   87.1031250000000         3.686355593688713E-003
   87.3168750000000         3.674189288582999E-003
   87.5306250000000         3.665314067876562E-003
   87.7443750000000         3.659913952459682E-003
   87.9581250000000         3.658003210209357E-003
   88.1718750000000         3.659379303864334E-003
   88.3856250000000         3.663760824843770E-003
   88.5993750000000         3.670784105328595E-003
   88.8131250000000         3.680093924200184E-003
   89.0268750000000         3.691370354437462E-003
   89.2406250000000         3.704350080089705E-003
   89.4543750000000         3.718819728604489E-003
   89.6681250000000         3.734593764516486E-003
   89.8818750000000         3.751480101021571E-003
   90.0956250000000         3.769243684135051E-003
   90.3093750000000         3.787584495562245E-003
   90.5231250000000         3.806118165828784E-003
   90.7368750000000         3.824396593772986E-003
   90.9506250000000         3.841935353533233E-003
   91.1643750000000         3.858275899184036E-003
   91.3781250000000         3.873039293644343E-003
   91.5918750000000         3.885989640904512E-003
   91.8056250000000         3.897080896409529E-003
   92.0193750000000         3.906482037790812E-003
   92.2331250000000         3.914571529484548E-003
   92.4468750000000         3.921905268866877E-003
   92.6606250000000         3.929155672249776E-003
   92.8743750000000         3.937035176417289E-003
   93.0881250000000         3.946212650373598E-003
   93.3018750000000         3.957238881752503E-003
   93.5156250000000         3.970480476096811E-003
   93.7293750000000         3.986094852920162E-003
   93.9431250000000         4.004009158535360E-003
   94.1568750000000         4.023959210755220E-003
   94.3706250000000         4.045520851399970E-003
   94.5843750000000         4.068166291033865E-003
   94.7981250000000         4.091336553517005E-003
   95.0118750000000         4.114495161735768E-003
   95.2256250000000         4.137177576107418E-003
   95.4393750000000         4.159029934638526E-003
   95.6531250000000         4.179809015916285E-003
   95.8668750000000         4.199401114791668E-003
   96.0806250000000         4.217791366077387E-003
   96.2943750000000         4.235036524520751E-003
   96.5081250000000         4.251257007778264E-003
   96.7218750000000         4.266544538840367E-003
   96.9356250000000         4.281004694569192E-003
   97.1493750000000         4.294675272529070E-003
   97.3631250000000         4.307533910158714E-003
   97.5768750000000         4.319485417184746E-003
   97.7906250000000         4.330372263901661E-003
   98.0043750000000         4.339995061244483E-003
   98.2181250000000         4.348142832022087E-003
   98.4318750000000         4.354634172402744E-003
   98.6456250000000         4.359361151876381E-003
   98.8593750000000         4.362331554354746E-003
   99.0731250000000         4.363700650300564E-003
   99.2868750000000         4.363787420628933E-003
   99.5006250000000         4.363067269256296E-003
   99.7143750000000         4.362141515768043E-003
   99.9281250000000         4.361681624363408E-003
   100.141875000000         4.362356002822469E-003
   100.355625000000         4.364749391033414E-003
   100.569375000000         4.369282472897360E-003
   100.783125000000         4.376152049496788E-003
   100.996875000000         4.385317305208364E-003
   101.210625000000         4.396449884991382E-003
   101.424375000000         4.409053348221535E-003
   101.638125000000         4.422450416071861E-003
   101.851875000000         4.435966383211513E-003
   102.065625000000         4.448961764898691E-003
   102.279375000000         4.460968834535224E-003
   102.493125000000         4.471746737727054E-003
   102.706875000000         4.481310026241934E-003
   102.920625000000         4.489912830591427E-003
   103.134375000000         4.497992330854849E-003
   103.348125000000         4.506074625687847E-003
   103.561875000000         4.514666135817370E-003
   103.775625000000         4.524176771459357E-003
   103.989375000000         4.534808943780753E-003
   104.203125000000         4.546540271777222E-003
   104.416875000000         4.559113331932328E-003
   104.630625000000         4.572098321357004E-003
   104.844375000000         4.584969279250737E-003
   105.058125000000         4.597228713195852E-003
   105.271875000000         4.608503042410623E-003
   105.485625000000         4.618617205120225E-003
   105.699375000000         4.627683543609911E-003
   105.913125000000         4.636064739932342E-003
   106.126875000000         4.644377708335648E-003
   106.340625000000         4.653393697190885E-003
   106.554375000000         4.663940669052385E-003
   106.768125000000         4.676795122505890E-003
   106.981875000000         4.692573150622300E-003
   107.195625000000         4.711668949581914E-003
   107.409375000000         4.734179481733849E-003
   107.623125000000         4.759985544432251E-003
   107.836875000000         4.788679613270483E-003
   108.050625000000         4.819744144637652E-003
   108.264375000000         4.852508069763208E-003
   108.478125000000         4.886331542394896E-003
   108.691875000000         4.920559476817431E-003
   108.905625000000         4.954647378233425E-003
   109.119375000000         4.988113604942579E-003
   109.333125000000         5.020562719185077E-003
   109.546875000000         5.051669747422174E-003
   109.760625000000         5.081153229284329E-003
   109.974375000000         5.108768634305141E-003
   110.188125000000         5.134309351139950E-003
   110.401875000000         5.157622892521216E-003
   110.615625000000         5.178639991038898E-003
   110.829375000000         5.197408650064936E-003
   111.043125000000         5.214121768559817E-003
   111.256875000000         5.229133358348534E-003
   111.470625000000         5.242955026697889E-003
   111.684375000000         5.256226647818314E-003
   111.898125000000         5.269665306443730E-003
   112.111875000000         5.283995158026719E-003
   112.325625000000         5.299870096424885E-003
   112.539375000000         5.317799154654071E-003
   112.753125000000         5.338086663626332E-003
   112.966875000000         5.360797483578804E-003
   113.180625000000         5.385748940947025E-003
   113.394375000000         5.412535416518538E-003
   113.608125000000         5.440576422075895E-003
   113.821875000000         5.469183403152290E-003
   114.035625000000         5.497633218533910E-003
   114.249375000000         5.525237986826895E-003
   114.463125000000         5.551401976935638E-003
   114.676875000000         5.575658095207912E-003
   114.890625000000         5.597682739443378E-003
   115.104375000000         5.617290661534704E-003
   115.318125000000         5.634413899503332E-003
   115.531875000000         5.649071674788981E-003
   115.745625000000         5.661340055721926E-003
   115.959375000000         5.671326609132753E-003
   116.173125000000         5.679157255287139E-003
   116.386875000000         5.684975192780803E-003
   116.600625000000         5.688949372955002E-003
   116.814375000000         5.691286463389747E-003
   117.028125000000         5.692276511611207E-003
   117.241875000000         5.692250549601917E-003
   117.455625000000         5.691649204510245E-003
   117.669375000000         5.690945218090720E-003
   117.883125000000         5.690681879079615E-003
   118.096875000000         5.691379243782752E-003
   118.310625000000         5.693524536514927E-003
   118.524375000000         5.697509908339030E-003
   118.738125000000         5.703607316570748E-003
   118.951875000000         5.711936141223579E-003
   119.165625000000         5.722461929766455E-003
   119.379375000000         5.735011814143607E-003
   119.593125000000         5.749310275031193E-003
   119.806875000000         5.765028655925241E-003
   120.020625000000         5.781841479530864E-003
   120.234375000000         5.799485648092998E-003
   120.448125000000         5.817776725798147E-003
   120.661875000000         5.836684226127401E-003
   120.875625000000         5.856284357763785E-003
   121.089375000000         5.876761384275559E-003
   121.303125000000         5.898362561512070E-003
   121.516875000000         5.921341397885365E-003
   121.730625000000         5.945900454124469E-003
   121.944375000000         5.972135690231134E-003
   122.158125000000         5.999998470019581E-003
   122.371875000000         6.029277903156515E-003
   122.585625000000         6.059607146645432E-003
   122.799375000000         6.090492994233404E-003
   123.013125000000         6.121363648601395E-003
   123.226875000000         6.151627122593060E-003
   123.440625000000         6.180729629473590E-003
   123.654375000000         6.208208780209077E-003
   123.868125000000         6.233728517783125E-003