  -1.60312500000000         3.493839336119723E-024
  -1.38937500000000         5.737056359558415E-022
  -1.17562500000000         5.235529595826407E-021
 -0.961875000000000         2.952472749895363E-020
 -0.748125000000000         1.298350733952865E-019
 -0.534375000000000         4.773773109591075E-019
 -0.320625000000000         1.511903903828614E-018
 -0.106875000000000         4.200927824089997E-018
  0.106875000000000         1.039380842358267E-017
  0.320625000000000         2.321356219350641E-017
  0.534375000000000         4.740440633922034E-017
  0.748125000000000         8.955902193076534E-017
  0.961875000000000         1.581621358594598E-016
   1.17562500000000         2.633878294713630E-016
   1.38937500000000         4.165644649606454E-016
   1.60312500000000         6.292523401325299E-016
   1.81687500000000         9.119287584346515E-016
   2.03062500000000         1.272327726766435E-015
   2.24437500000000         1.713620935416851E-015
   2.45812500000000         2.232645619911790E-015
   2.67187500000000         2.818446802499571E-015
   2.88562500000000         3.451397134621216E-015
   3.09937500000000         4.103146205728315E-015
   3.31312500000000         4.737531773941425E-015
   3.52687500000000         5.312481603788639E-015
   3.74062500000000         5.782812412976200E-015
   3.95437500000000         6.103685202163202E-015
   4.16812500000000         6.234289414853189E-015
   4.38187500000000         6.141311678279885E-015
   4.59562500000000         5.801849501746077E-015
   4.80937500000000         5.205203550774305E-015
   5.02312500000000         4.353356768282873E-015
   5.23687500000000         3.260078617200361E-015
   5.45062500000000         1.948720420486465E-015
   5.66437500000000         4.491320578675367E-016
   5.87812500000000        -1.205910088556465E-015
   6.09187500000000        -2.984137158464346E-015
   6.30562500000000        -4.856508962303490E-015
   6.51937500000000        -6.798916723805341E-015
   6.73312500000000        -8.792431284912400E-015
   6.94687500000000        -1.082220103656412E-014
   7.16062500000000        -1.287524287603537E-014
   7.37437500000000        -1.493755345850540E-014
   7.58812500000000        -1.699119380172468E-014
   7.80187500000000        -1.901184149274554E-014
   8.01562500000000        -2.096747617173734E-014
   8.22937500000000        -2.281849096139830E-014
   8.44312500000000        -2.451928360022636E-014
   8.65687500000000        -2.602113726636477E-014
   8.87062500000000        -2.727599437774259E-014
   9.08437500000000        -2.824044483110763E-014
   9.29812500000000        -2.887928243021360E-014
   9.51187500000000        -2.916808251202589E-014
   9.72562500000000        -2.909432599418170E-014
   9.93937500000000        -2.865701060076724E-014
   10.1531250000000        -2.786484495443533E-014
   10.3668750000000        -2.673342335986351E-014
   10.5806250000000        -2.528209767895668E-014
   10.7943750000000        -2.353110537938204E-014
   11.0081250000000        -2.149946774121767E-014
   11.2218750000000        -1.920413613954013E-014
   11.4356250000000        -1.666043050541107E-014
   11.6493750000000        -1.388351878236312E-014
   11.8631250000000        -1.089043522528815E-014
   12.0768750000000        -7.702023350086257E-015
   12.2906250000000        -4.344105911380306E-015
   12.5043750000000        -8.472886892288777E-016
   12.7181250000000         2.754805350331926E-015
   12.9318750000000         6.428901683566074E-015
   13.1456250000000         1.014662754754026E-014
   13.3593750000000         1.388951486722030E-014
   13.5731250000000         1.765355673787569E-014
   13.7868750000000         2.145240676656154E-014
   14.0006250000000         2.531845735886142E-014
   14.2143750000000         2.930135767114664E-014
   14.4281250000000         3.346396699345379E-014
   14.6418750000000         3.787606767550116E-014
   14.8556250000000         4.260671377020052E-014
   15.0693750000000         4.771625619779245E-014
   15.2831250000000         5.324917690874665E-014
   15.4968750000000         5.922873360552663E-014
   15.7106250000000         6.565420002566780E-014
   15.9243750000000         7.250100761408544E-014
   16.1381250000000         7.972359548938655E-014
   16.3518750000000         8.726050347196696E-014
   16.5656250000000         9.504076384540911E-014
   16.7793750000000         1.029905578610869E-013
   16.9931250000000         1.110392582269519E-013
   17.2068750000000         1.191240364841919E-013
   17.4206250000000         1.271925130820372E-013
   17.6343750000000         1.352035753073037E-013
   17.8481250000000         1.431266507005010E-013
   18.0618750000000         1.509399588701621E-013
   18.2756250000000         1.586284981084662E-013
   18.4893750000000         1.661825197667007E-013
   18.7031250000000         1.735968940283427E-013
   18.9168750000000         1.808715856641002E-013
   19.1306250000000         1.880131732214000E-013
   19.3443750000000         1.950368927685513E-013
   19.5581250000000         2.019687195695631E-013
   19.7718750000000         2.088467497214934E-013
   19.9856250000000         2.157213407822114E-013
   20.1993750000000         2.226537209020530E-013
   20.4131250000000         2.297129450102434E-013
   20.6268750000000         2.369715505474544E-013
   20.8406250000000         2.445004604366886E-013
   21.0543750000000         2.523638218806436E-013
   21.2681250000000         2.606145234042397E-013
   21.4818750000000         2.692910301905264E-013
   21.6956250000000         2.784159352101095E-013
   21.9093750000000         2.879962966677273E-013
   22.1231250000000         2.980255874982359E-013
   22.3368750000000         3.084868573618252E-013
   22.5506250000000         3.193564786422507E-013
   22.7643750000000         3.306079003286292E-013
   22.9781250000000         3.422149782192064E-013
   23.1918750000000         3.541545762729640E-013
   23.4056250000000         3.664083532692526E-013
   23.6193750000000         3.789639177621541E-013
   23.8331250000000         3.918155837686725E-013
   24.0468750000000         4.049649804521462E-013
   24.2606250000000         4.184217109800438E-013
   24.4743750000000         4.322040220661101E-013
   24.6881250000000         4.463392954423639E-013
   24.9018750000000         4.608639318247780E-013
   25.1156250000000         4.758221244515314E-013
   25.3293750000000         4.912632008807888E-013
   25.5431250000000         5.072373304584569E-013
   25.7568750000000         5.237897950109345E-013
   25.9706250000000         5.409545718110708E-013
   26.1843750000000         5.587483444225529E-013
   26.3981250000000         5.771662210488727E-013
   26.6118750000000         5.961807218861152E-013
   26.8256250000000         6.157452800516898E-013
   27.0393750000000         6.358025684568325E-013
   27.2531250000000         6.562974539756620E-013
   27.4668750000000         6.771931572852399E-013
   27.6806250000000         6.984879663680907E-013
   27.8943750000000         7.202292231446647E-013
   28.1081250000000         7.425208598952706E-013
   28.3218750000000         7.655209846672387E-013
   28.5356250000000         7.894270820350108E-013
   28.7493750000000         8.144481955342361E-013
   28.9631250000000         8.407658045026461E-013
   29.1768750000000         8.684876428924008E-013
   29.3906250000000         8.976012751981541E-013
   29.6043750000000         9.279360959820156E-013
   29.8181250000000         9.591431292650651E-013
   30.0318750000000         9.907011758020343E-013
   30.2456250000000         1.021955442284636E-012
   30.4593750000000         1.052190536095172E-012
   30.6731250000000         1.080734218407224E-012
   30.8868750000000         1.107082056661047E-012
   31.1006250000000         1.131026994245419E-012
   31.3143750000000         1.152773328581705E-012
   31.5281250000000         1.173012012754623E-012
   31.7418750000000         1.192935204560204E-012
   31.9556250000000         1.214172780772448E-012
   32.1693750000000         1.238642239028415E-012
   32.3831250000000         1.268315513196262E-012
   32.5968750000000         1.304920350305891E-012
   32.8106250000000         1.349608491846243E-012
   33.0243750000000         1.402635281508098E-012
   33.2381250000000         1.463103371898799E-012
   33.4518750000000         1.528824856937972E-012
   33.6656250000000         1.596349407500110E-012
   33.8793750000000         1.661190614332068E-012
   34.0931250000000         1.718259187783090E-012
   34.3068750000000         1.762482086563212E-012
   34.5206250000000         1.789554407526027E-012
   34.7343750000000         1.796740038318679E-012
   34.9481250000000         1.783613046865859E-012
   35.1618750000000         1.752619306319805E-012
   35.3756250000000         1.709340520679023E-012
   35.5893750000000         1.662363577262659E-012
   35.8031250000000         1.622696776759758E-012
   36.0168750000000         1.602728508211293E-012
   36.2306250000000         1.614788459173017E-012
   36.4443750000000         1.669438363550045E-012
   36.6581250000000         1.773680184192716E-012
   36.8718750000000         1.929314137565601E-012
   37.0856250000000         2.131698411016777E-012
   37.2993750000000         2.369150172707434E-012
   37.5131250000000         2.623180171381812E-012
   37.7268750000000         2.869672056357643E-012
   37.9406250000000         3.081008466454650E-012
   38.1543750000000         3.229020000184428E-012
   38.3681250000000         3.288504903557712E-012
   38.5818750000000         3.240953662832895E-012
   38.7956250000000         3.078030706034202E-012
   39.0093750000000         2.804330841585121E-012
   39.2231250000000         2.438951254972022E-012
   39.4368750000000         2.015505245797017E-012
   39.6506250000000         1.580348654337105E-012
   39.8643750000000         1.188982398030982E-012
   40.0781250000000         9.008160830175060E-013
   40.2918750000000         7.727032414979552E-013
   40.5056250000000         8.518608158395175E-013
   40.7193750000000         1.168936486433152E-012
   40.9331250000000         1.732062495915509E-012
   41.1468750000000         2.522717255468987E-012
   41.3606250000000         3.494098982125700E-012
   41.5743750000000         4.572503106116721E-012
   41.7881250000000         5.661903296221371E-012
   42.0018750000000         6.651592219658973E-012
   42.2156250000000         7.426377608456941E-012
   42.4293750000000         7.878492245096107E-012
   42.6431250000000         7.920103163697991E-012
   42.8568750000000         7.495131185007618E-012
   43.0706250000000         6.589044407174084E-012
   43.2843750000000         5.235381863441341E-012
   43.4981250000000         3.517996564246882E-012
   43.7118750000000         1.568365042466822E-012
   43.9256250000000        -4.422366404624570E-013
   44.1393750000000        -2.315383676048803E-012
   44.3531250000000        -3.842161181833728E-012
   44.5668750000000        -4.822545681807609E-012
   44.7806250000000        -5.085853312246327E-012
   44.9943750000000        -4.510364106787363E-012
   45.2081250000000        -3.040163895870890E-012
   45.4218750000000        -6.973597398084705E-013
   45.6356250000000         2.411879430404059E-012
   45.8493750000000         6.098546004636926E-012
   46.0631250000000         1.009977958591211E-011
   46.2768750000000         1.409543979821006E-011
   46.4906250000000         1.773138706573932E-011
   46.7043750000000         2.064792121728365E-011
   46.9181250000000         2.251125063621697E-011
   47.1318750000000         2.304543830057266E-011
   47.3456250000000         2.206204256731079E-011
   47.5593750000000         1.948467327181412E-011
   47.7731250000000         1.536593266973129E-011
   47.9868750000000         9.894700083267277E-012
   48.2006250000000         3.392421182789012E-012
   48.4143750000000        -3.702071874999698E-012
   48.6281250000000        -1.085872254074447E-011
   48.8418750000000        -1.749193347306645E-011
   49.0556250000000        -2.300341278684170E-011
   49.2693750000000        -2.682908959131887E-011
   49.4831250000000        -2.848651123995120E-011
   49.6968750000000        -2.761893764962521E-011
   49.9106250000000        -2.403247755991473E-011
   50.1243750000000        -1.772306360698870E-011
   50.3381250000000        -8.890799456956917E-012
   50.5518750000000         2.059837121927411E-012
   50.7656250000000         1.453438076698041E-011
   50.9793750000000         2.777671757934169E-011
   51.1931250000000         4.090975207415095E-011
   51.4068750000000         5.298597646135768E-011
   51.6206250000000         6.304496584089817E-011
   51.8343750000000         7.017454684895433E-011
   52.0481250000000         7.357236917461667E-011
   52.2618750000000         7.260479302055909E-011
   52.4756250000000         6.686030616077460E-011
   52.6893750000000         5.619500503688913E-011
   52.9031250000000         4.076792670509150E-011
   53.1168750000000         2.106414299523418E-011
   53.3306250000000        -2.096486848709656E-012
   53.5443750000000        -2.756711723599986E-011
   53.7581250000000        -5.390058073940213E-011
   53.9718750000000        -7.939715958105236E-011
   54.1856250000000        -1.021753024255592E-010
   54.3993750000000        -1.202662147086612E-010
   54.6131250000000        -1.317317169479229E-010
   54.8268750000000        -1.348025768558704E-010
   55.0406250000000        -1.280317621837551E-010
   55.2543750000000        -1.104539499634050E-010
   55.4681250000000        -8.173951088602746E-011
   55.6818750000000        -4.232851483004845E-011
   55.8956250000000         6.471421120140668E-012
   56.1093750000000         6.243990719396254E-011
   56.3231250000000         1.224660918662150E-010
   56.5368750000000         1.826498049378889E-010
   56.7506250000000         2.384871503105386E-010
   56.9643750000000         2.851387129977726E-010
   57.1781250000000         3.177698892421452E-010
   57.3918750000000         3.319438179469169E-010
   57.6056250000000         3.240389958638256E-010
   57.8193750000000         2.916569811635153E-010
   58.0331250000000         2.339816528241613E-010
   58.2468750000000         1.520511161151758E-010
   58.4606250000000         4.890701165097165E-011
   58.6743750000000        -7.040625508456640E-011
   58.8881250000000        -1.990084377051306E-010
   59.1018750000000        -3.285184660220769E-010
   59.3156250000000        -4.495439701622621E-010
   59.5293750000000        -5.522964162904951E-010
   59.7431250000000        -6.272895641581712E-010
   59.9568750000000        -6.660690545373380E-010
   60.1706250000000        -6.619157711033404E-010
   60.3843750000000        -6.104659297282801E-010
   60.5981250000000        -5.101967249562996E-010
   60.8118750000000        -3.627372246033941E-010
   61.0256250000000        -1.729788306320813E-010
   61.2393750000000         5.102369398588018E-011
   61.4531250000000         2.983528867648873E-010
   61.6668750000000         5.557083744949160E-010
   61.8806250000000         8.080320582346806E-010
   62.0943750000000         1.039238609152706E-009
   62.3081250000000         1.233010078475244E-009
   62.5218750000000         1.373617143238542E-009
   62.7356250000000         1.446736827138746E-009
   62.9493750000000         1.440245561794432E-009
   63.1631250000000         1.344974909823723E-009
   63.3768750000000         1.155422853766500E-009
   63.5906250000000         8.704143405443537E-010
   63.8043750000000         4.936996045262130E-010
   64.0181250000000         3.446759901553924E-011
   64.2318750000000        -4.922641683120195E-010
   64.4456250000000        -1.065440528092604E-009
   64.6593750000000        -1.658014708562896E-009
   64.8731250000000        -2.237335997560001E-009
   65.0868750000000        -2.765967826148832E-009
   65.3006250000000        -3.203014096099286E-009
   65.5143750000000        -3.506004657601805E-009
   65.7281250000000        -3.633347306634781E-009
   65.9418750000000        -3.547295094810360E-009
   66.1556250000000        -3.217308188889512E-009
   66.3693750000000        -2.623615407449015E-009
   66.5831250000000        -1.760710233629967E-009
   66.7968750000000        -6.404590266023429E-010
   67.0106250000000         7.055350966809924E-010
   67.2243750000000         2.224672187136223E-009
   67.4381250000000         3.843524162732718E-009
   67.6518750000000         5.469682529697218E-009
   67.8656250000000         6.995421938949035E-009
   68.0793750000000         8.303170363620178E-009
   68.2931250000000         9.272608722596333E-009
   68.5068750000000         9.789047411981944E-009
   68.7206250000000         9.752561654509476E-009
   68.9343750000000         9.087230092201144E-009
   69.1481250000000         7.749728995409556E-009
   69.3618750000000         5.736502292385284E-009
   69.5756250000000         3.088764980231498E-009
   69.7893750000000        -1.052923231967296E-010
   70.0031250000000        -3.711550834734933E-009
   70.2168750000000        -7.554479649648897E-009
   70.4306250000000        -1.142506117802682E-008
   70.6443750000000        -1.509177547722091E-008
   70.8581250000000        -1.831401312648475E-008
   71.0718750000000        -2.085704547688065E-008
   71.2856250000000        -2.250750468506415E-008
   71.4993750000000        -2.308823417337568E-008
   71.7131250000000        -2.247137582356869E-008
   71.9268750000000        -2.058866685626023E-008
   72.1406250000000        -1.743812049806839E-008
   72.3543750000000        -1.308654395576564E-008
   72.5681250000000        -7.667680246045403E-009
   72.7818750000000        -1.376116316929470E-009
   72.9956250000000         5.542555141036338E-009
   73.2093750000000         1.280453207027285E-008
   73.4231250000000         2.010254228993167E-008
   73.6368750000000         2.712137870917819E-008
   73.8506250000000         3.355306005245128E-008
   74.0643750000000         3.911053239124600E-008
   74.2781250000000         4.353901178025584E-008
   74.4918750000000         4.662433216632409E-008
   74.7056250000000         4.819797695554033E-008
   74.9193750000000         4.813880363904698E-008
   75.1331250000000         4.637178380081853E-008
   75.3468750000000         4.286434327144123E-008
   75.5606250000000         3.762107281808573E-008
   75.7743750000000         3.067767115809618E-008
   75.9881250000000         2.209497258796027E-008
   76.2018750000000         1.195380581539757E-008
   76.4156250000000         3.512439986783969E-010
   76.6293750000000        -1.260143740464231E-008
   76.8431250000000        -2.677904868886160E-008
   77.0568750000000        -4.204123854172628E-008
   77.2706250000000        -5.823015876568257E-008
   77.4843750000000        -7.516765521399196E-008
   77.6981250000000        -9.265268534129751E-008
   77.9118750000000        -1.104596600671905E-007
   78.1256250000000        -1.283383177992357E-007
   78.3393750000000        -1.460155732060360E-007
   78.5531250000000        -1.631995627635119E-007
   78.7668750000000        -1.795858591599396E-007
   78.9806250000000        -1.948655760407764E-007
   79.1943750000000        -2.087348614741333E-007
   79.4081250000000        -2.209051074419812E-007
   79.6218750000000        -2.311131018877747E-007
   79.8356250000000        -2.391303296240491E-007
   80.0493750000000        -2.447706901103257E-007
   80.2631250000000        -2.478960364619121E-007
   80.4768750000000        -2.484191361905392E-007
   80.6906250000000        -2.463038895466240E-007
   80.9043750000000        -2.415628920212192E-007
   81.1181250000000        -2.342526688706174E-007
   81.3318750000000        -2.244671184191020E-007
   81.5456250000000        -2.123298581491781E-007
   81.7593750000000        -1.979862593681817E-007
   81.9731250000000        -1.815959750536369E-007
   82.1868750000000        -1.633267104604682E-007
   82.4006250000000        -1.433498626488097E-007
   82.6143750000000        -1.218384741491691E-007
   82.8281250000000        -9.896772267958041E-008
   83.0418750000000        -7.491792121008473E-008
   83.2556250000000        -4.987975021996125E-008
   83.4693750000000        -2.406120626956822E-008
   83.6831250000000         2.304453596654293E-009
   83.8968750000000         2.895064742322078E-008
   84.1106250000000         5.557025268315635E-008
   84.3243750000000         8.181022957659093E-008
   84.5381250000000         1.072690184381485E-007
   84.7518750000000         1.314975148439933E-007
   84.9656250000000         1.540042229073308E-007
   85.1793750000000         1.742649226716360E-007
   85.3931250000000         1.917368764049258E-007
   85.6068750000000         2.058772602658895E-007
   85.8206250000000         2.161651649908684E-007
   86.0343750000000         2.221261868031401E-007
   86.2481250000000         2.233583529781410E-007
   86.4618750000000         2.195579191844529E-007
   86.6756250000000         2.105434579928715E-007
   86.8893750000000         1.962766442431103E-007
   87.1031250000000         1.768782402660217E-007
   87.3168750000000         1.526379905882985E-007
   87.5306250000000         1.240174408429251E-007
   87.7443750000000         9.164507955620874E-008
   87.9581250000000         5.630363723685632E-008
   88.1718750000000         1.890983249328499E-008
   88.3856250000000        -1.951270481999865E-008
   88.5993750000000        -5.786621174221323E-008
   88.8131250000000        -9.501583604498181E-008
   89.0268750000000        -1.298292958562919E-007
   89.2406250000000        -1.612174025206197E-007
   89.4543750000000        -1.881737043984475E-007
   89.6681250000000        -2.098116227446693E-007
   89.8818750000000        -2.253976481445548E-007
   90.0956250000000        -2.343794208864322E-007
   90.3093750000000        -2.364078011441906E-007
   90.5231250000000        -2.313523152737813E-007
   90.7368750000000        -2.193096174921503E-007
   90.9506250000000        -2.006048139691593E-007
   91.1643750000000        -1.757856512599789E-007
   91.3781250000000        -1.456096764572059E-007
   91.5918750000000        -1.110245463691432E-007
   91.8056250000000        -7.314171966327607E-008
   92.0193750000000        -3.320383620390965E-008
   92.2331250000000         7.453801123407588E-009
   92.4468750000000         4.744705265822009E-008
   92.6606250000000         8.539123680249447E-008
   92.8743750000000         1.199527285124762E-007
   93.0881250000000         1.499023115915376E-007
   93.3018750000000         1.741683222340592E-007
   93.5156250000000         1.918872262254917E-007
   93.7293750000000         2.024489498692065E-007
   93.9431250000000         2.055340938317313E-007
   94.1568750000000         2.011401549353222E-007
   94.3706250000000         1.895941076440038E-007
   94.5843750000000         1.715491805016817E-007
   94.7981250000000         1.479644049877781E-007
   95.0118750000000         1.200664894705253E-007
   95.2256250000000         8.929472514638335E-008
   95.4393750000000         5.723088413278252E-008
   95.6531250000000         2.551732196883443E-008
   95.8668750000000        -4.232364564048584E-009
   96.0806250000000        -3.052486194337166E-008
   96.2943750000000        -5.207500393561422E-008
   96.5081250000000        -6.788396532871236E-008
   96.7218750000000        -7.730207278783748E-008
   96.9356250000000        -8.007129356013411E-008
   97.1493750000000        -7.634368067327032E-008
   97.3631250000000        -6.667364115314921E-008
   97.5768750000000        -5.198373815668514E-008
   97.7906250000000        -3.350569504423028E-008
   98.0043750000000        -1.270017738797705E-008
   98.2181250000000         8.839377837906822E-009
   98.4318750000000         2.949229171353472E-008
   98.6456250000000         4.771810717400308E-008
   98.8593750000000         6.215831373207867E-008
   99.0731250000000         7.172502785577879E-008
   99.2868750000000         7.567029036472521E-008
   99.5006250000000         7.363113358791948E-008
   99.7143750000000         6.564746406187309E-008
   99.9281250000000         5.215193939147721E-008
   100.141875000000         3.393320464839246E-008
   100.355625000000         1.207590183852466E-008
   100.569375000000        -1.211740512091950E-008
   100.783125000000        -3.721598899755517E-008
   100.996875000000        -6.175531922345373E-008
   101.210625000000        -8.432888867041356E-008
   101.424375000000        -1.036709404286698E-007
   101.638125000000        -1.187246475718957E-007
   101.851875000000        -1.286918497850530E-007
   102.065625000000        -1.330622715567410E-007
   102.279375000000        -1.316220523999739E-007
   102.493125000000        -1.244432204928296E-007
   102.706875000000        -1.118572622242171E-007
   102.920625000000        -9.441703917427519E-008
   103.134375000000        -7.285188616389056E-008
   103.348125000000        -4.802075112372637E-008
   103.561875000000        -2.086773189688798E-008
   103.775625000000         7.616593783439446E-009
   103.989375000000         3.642593336431029E-008
   104.203125000000         6.456047640746471E-008
   104.416875000000         9.104129557817668E-008
   104.630625000000         1.149189724083096E-007
   104.844375000000         1.352793794972386E-007
   105.058125000000         1.512500129558332E-007
   105.271875000000         1.620102228588261E-007
   105.485625000000         1.668081343819584E-007
   105.699375000000         1.649860461217287E-007
   105.913125000000         1.560147455624226E-007
   106.126875000000         1.395356465320329E-007
   106.340625000000         1.154081064049584E-007
   106.554375000000         8.375790442067351E-008
   106.768125000000         4.502182597131889E-008
   106.981875000000        -1.726134535423764E-011
   107.195625000000        -5.021044455192586E-008
   107.409375000000        -1.040429067959878E-007
   107.623125000000        -1.596579753069348E-007
   107.836875000000        -2.149071953854765E-007
   108.050625000000        -2.674265118419592E-007
   108.264375000000        -3.147364197728940E-007
   108.478125000000        -3.543617422664116E-007
   108.691875000000        -3.839647036794721E-007
   108.905625000000        -4.014833785583332E-007
   109.119375000000        -4.052665609855999E-007
   109.333125000000        -3.941957240646474E-007
   109.546875000000        -3.677850758957719E-007
   109.760625000000        -3.262517585040443E-007
   109.974375000000        -2.705499128079380E-007
   110.188125000000        -2.023645264373402E-007
   110.401875000000        -1.240635306894644E-007
   110.615625000000        -3.860932884874710E-008
   110.829375000000         5.056638087021701E-008
   111.043125000000         1.397181753133938E-007
   111.256875000000         2.249645164478928E-007
   111.470625000000         3.024775603823525E-007
   111.684375000000         3.686744877595088E-007
   111.898125000000         4.203995425747975E-007
   112.111875000000         4.550865291464606E-007
   112.325625000000         4.708927241729359E-007
   112.539375000000         4.667969145776336E-007
   112.753125000000         4.426564388207612E-007
   112.966875000000         3.992205323450734E-007
   113.180625000000         3.380997885529117E-007
   113.394375000000         2.616939789122864E-007
   113.608125000000         1.730826774061311E-007
   113.821875000000         7.588497820651258E-008
   114.035625000000        -2.590401356218752E-008
   114.249375000000        -1.280913570193072E-007
   114.463125000000        -2.264702026150192E-007
   114.676875000000        -3.170007124870933E-007
   114.890625000000        -3.959798271563868E-007
   115.104375000000        -4.601927212829179E-007
   115.318125000000        -5.070400631395124E-007
   115.531875000000        -5.346366429224543E-007
   115.745625000000        -5.418784613512635E-007
   115.959375000000        -5.284768788427023E-007
   116.173125000000        -4.949598392759382E-007
   116.386875000000        -4.426414434321932E-007
   116.600625000000        -3.735622198604994E-007
   116.814375000000        -2.904033106082052E-007
   117.028125000000        -1.963784596524100E-007
   117.241875000000        -9.510818036150389E-008
   117.455625000000         9.519189632466627E-009
   117.669375000000         1.134946345134469E-007
   117.883125000000         2.128387968028797E-007
   118.096875000000         3.037504824139871E-007
   118.310625000000         3.827483816046955E-007
   118.524375000000         4.468012071131197E-007
   118.738125000000         4.934417027264230E-007
   118.951875000000         5.208603452850356E-007
   119.165625000000         5.279750722774042E-007
   119.379375000000         5.144740340493478E-007
   119.593125000000         4.808292040245449E-007
   119.806875000000         4.282796789203388E-007
   120.020625000000         3.587846441354856E-007
   120.234375000000         2.749472298994558E-007
   120.448125000000         1.799117868688733E-007
   120.661875000000         7.723839668188700E-008
   120.875625000000        -2.924037517567473E-008
   121.089375000000        -1.355744622840697E-007
   121.303125000000        -2.378562356279596E-007
   121.516875000000        -3.323781826866462E-007
   121.730625000000        -4.157810528367758E-007
   121.944375000000        -4.851855366096316E-007
   122.158125000000        -5.383012901964683E-007
   122.371875000000        -5.735082336803517E-007
   122.585625000000        -5.899064851070937E-007
   122.799375000000        -5.873329610526114E-007
   123.013125000000        -5.663444764653586E-007
   123.226875000000        -5.281689982611317E-007
   123.440625000000        -4.746284299976751E-007
   123.654375000000        -4.080378149047433E-007
   123.868125000000        -3.310870405741044E-007