  -1.60312500000000        -7.575765360547295E-018
  -1.38937500000000        -7.573684024448303E-018
  -1.17562500000000        -6.234640558951685E-018
 -0.961875000000000         3.548630579951257E-018
 -0.748125000000000         5.000635422238943E-017
 -0.534375000000000         2.241976426416297E-016
 -0.320625000000000         7.623430365895737E-016
 -0.106875000000000         2.138913532249901E-015
  0.106875000000000         5.008749976077847E-015
  0.320625000000000         9.618401345433194E-015
  0.534375000000000         1.409542975415327E-014
  0.748125000000000         1.098297901129502E-014
  0.961875000000000        -1.842319752523322E-014
   1.17562500000000        -1.120175317972582E-013
   1.38937500000000        -3.368070900553729E-013
   1.60312500000000        -8.002406748602496E-013
   1.81687500000000        -1.662167252253377E-012
   2.03062500000000        -3.146560153285573E-012
   2.24437500000000        -5.552056017984112E-012
   2.45812500000000        -9.260222276897315E-012
   2.67187500000000        -1.474085885350062E-011
   2.88562500000000        -2.255327306520266E-011
   3.09937500000000        -3.334327547369819E-011
   3.31312500000000        -4.783542906575202E-011
   3.52687500000000        -6.682087772097286E-011
   3.74062500000000        -9.114144494014028E-011
   3.95437500000000        -1.216708029156594E-010
   4.16812500000000        -1.592944412434040E-010
   4.38187500000000        -2.048899307341427E-010
   4.59562500000000        -2.593093360161183E-010
   4.80937500000000        -3.233654030364015E-010
   5.02312500000000        -3.978228112044717E-010
   5.23687500000000        -4.833953158174086E-010
   5.45062500000000        -5.807487277678916E-010
   5.66437500000000        -6.905087200468147E-010
   5.87812500000000        -8.132720464909375E-010
   6.09187500000000        -9.496187448885248E-010
   6.30562500000000        -1.100122587699562E-009
   6.51937500000000        -1.265357080580398E-009
   6.73312500000000        -1.445895019647819E-009
   6.94687500000000        -1.642299955468593E-009
   7.16062500000000        -1.855109708399610E-009
   7.37437500000000        -2.084812593239559E-009
   7.58812500000000        -2.331819649240717E-009
   7.80187500000000        -2.596435815193916E-009
   8.01562500000000        -2.878834429501146E-009
   8.22937500000000        -3.179039064953208E-009
   8.44312500000000        -3.496916016199662E-009
   8.65687500000000        -3.832179067531118E-009
   8.87062500000000        -4.184406801775249E-009
   9.08437500000000        -4.553070318820838E-009
   9.29812500000000        -4.937567675777589E-009
   9.51187500000000        -5.337259976753011E-009
   9.72562500000000        -5.751503682875583E-009
   9.93937500000000        -6.179674164540183E-009
   10.1531250000000        -6.621176975818627E-009
   10.3668750000000        -7.075445372673889E-009
   10.5806250000000        -7.541925329070411E-009
   10.7943750000000        -8.020051407858121E-009
   11.0081250000000        -8.509218965776475E-009
   11.2218750000000        -9.008759315254864E-009
   11.4356250000000        -9.517923837408979E-009
   11.6493750000000        -1.003588224202110E-008
   11.8631250000000        -1.056173739749754E-008
   12.0768750000000        -1.109455624995480E-008
   12.2906250000000        -1.163341373930207E-008
   12.5043750000000        -1.217744300196272E-008
   12.7181250000000        -1.272588487123748E-008
   12.9318750000000        -1.327812781128911E-008
   13.1456250000000        -1.383373202140642E-008
   13.3593750000000        -1.439243246683618E-008
   13.5731250000000        -1.495411954230828E-008
   13.7868750000000        -1.551879947240390E-008
   14.0006250000000        -1.608653971603213E-008
   14.2143750000000        -1.665740717423824E-008
   14.4281250000000        -1.723140815884280E-008
   14.6418750000000        -1.780843853952792E-008
   14.8556250000000        -1.838825129239890E-008
   15.0693750000000        -1.897044572120704E-008
   15.2831250000000        -1.955447896777742E-008
   15.4968750000000        -2.013969789511917E-008
   15.7106250000000        -2.072538611563451E-008
   15.9243750000000        -2.131081964928975E-008
   16.1381250000000        -2.189532399548629E-008
   16.3518750000000        -2.247832609659204E-008
   16.5656250000000        -2.305939626856649E-008
   16.7793750000000        -2.363827740255390E-008
   16.9931250000000        -2.421490077444619E-008
   17.2068750000000        -2.478938962319728E-008
   17.4206250000000        -2.536205312552317E-008
   17.6343750000000        -2.593337322296253E-008
   17.8481250000000        -2.650398700337065E-008
   18.0618750000000        -2.707466612754027E-008
   18.2756250000000        -2.764629378107145E-008
   18.4893750000000        -2.821983933910194E-008
   18.7031250000000        -2.879632954406137E-008
   18.9168750000000        -2.937681623065001E-008
   19.1306250000000        -2.996234047366862E-008
   19.3443750000000        -3.055389456451099E-008
   19.5581250000000        -3.115238401445899E-008
   19.7718750000000        -3.175859271235552E-008
   19.9856250000000        -3.237315457352928E-008
   20.1993750000000        -3.299653462718004E-008
   20.4131250000000        -3.362902154978823E-008
   20.6268750000000        -3.427073184617655E-008
   20.8406250000000        -3.492162457609447E-008
   21.0543750000000        -3.558152382679073E-008
   21.2681250000000        -3.625014518362526E-008
   21.4818750000000        -3.692712235109653E-008
   21.6956250000000        -3.761203068173397E-008
   21.9093750000000        -3.830440546884482E-008
   22.1231250000000        -3.900375479838493E-008
   22.3368750000000        -3.970956810973515E-008
   22.5506250000000        -4.042132307299514E-008
   22.7643750000000        -4.113849386770263E-008
   22.9781250000000        -4.186056342987488E-008
   23.1918750000000        -4.258704119305322E-008
   23.4056250000000        -4.331748596294835E-008
   23.6193750000000        -4.405153156026744E-008
   23.8331250000000        -4.478891110733297E-008
   24.0468750000000        -4.552947497538445E-008
   24.2606250000000        -4.627319694971454E-008
   24.4743750000000        -4.702016524459438E-008
   24.6881250000000        -4.777055612538503E-008
   24.9018750000000        -4.852459172693208E-008
   25.1156250000000        -4.928248603766845E-008
   25.3293750000000        -5.004438606597636E-008
   25.5431250000000        -5.081031647837788E-008
   25.7568750000000        -5.158013651931617E-008
   25.9706250000000        -5.235351620734106E-008
   26.1843750000000        -5.312993641614766E-008
   26.3981250000000        -5.390871303480493E-008
   26.6118750000000        -5.468904133876965E-008
   26.8256250000000        -5.547005204704935E-008
   27.0393750000000        -5.625086763337735E-008
   27.2531250000000        -5.703064587187282E-008
   27.4668750000000        -5.780859832290846E-008
   27.6806250000000        -5.858397423546385E-008
   27.8943750000000        -5.935600616896136E-008
   28.1081250000000        -6.012382044839575E-008
   28.3218750000000        -6.088632313639209E-008
   28.5356250000000        -6.164208075609908E-008
   28.7493750000000        -6.238922041843723E-008
   28.9631250000000        -6.312537794463190E-008
   29.1768750000000        -6.384772130664575E-008
   29.3906250000000        -6.455307166440678E-008
   29.6043750000000        -6.523813275009685E-008
   29.8181250000000        -6.589982381355076E-008
   30.0318750000000        -6.653569229731611E-008
   30.2456250000000        -6.714436107493504E-008
   30.4593750000000        -6.772594646458441E-008
   30.6731250000000        -6.828236936013615E-008
   30.8868750000000        -6.881747686576578E-008
   31.1006250000000        -6.933689913838276E-008
   31.3143750000000        -6.984758827910198E-008
   31.5281250000000        -7.035702259346556E-008
   31.7418750000000        -7.087210902629773E-008
   31.9556250000000        -7.139787413354703E-008
   32.1693750000000        -7.193609233798972E-008
   32.3831250000000        -7.248404990569074E-008
   32.5968750000000        -7.303367411883394E-008
   32.8106250000000        -7.357125928811497E-008
   33.0243750000000        -7.407798671084197E-008
   33.2381250000000        -7.453136140775452E-008
   33.4518750000000        -7.490757673876342E-008
   33.6656250000000        -7.518467602147717E-008
   33.8793750000000        -7.534622611549485E-008
   34.0931250000000        -7.538507030525469E-008
   34.3068750000000        -7.530661349817964E-008
   34.5206250000000        -7.513103621328423E-008
   34.7343750000000        -7.489385587294713E-008
   34.9481250000000        -7.464437103534397E-008
   35.1618750000000        -7.444173537602139E-008
   35.3756250000000        -7.434870388862884E-008
   35.5893750000000        -7.442344592870764E-008
   35.8031250000000        -7.471018612675702E-008
   36.0168750000000        -7.522976510616715E-008
   36.2306250000000        -7.597144866650792E-008
   36.4443750000000        -7.688740640855801E-008
   36.6581250000000        -7.789118567734456E-008
   36.8718750000000        -7.886120405510207E-008
   37.0856250000000        -7.964977916324012E-008
   37.2993750000000        -8.009754348563404E-008
   37.5131250000000        -8.005232115043416E-008
   37.7268750000000        -7.939076332712974E-008
   37.9406250000000        -7.804035672969006E-008
   38.1543750000000        -7.599894722903491E-008
   38.3681250000000        -7.334875401669048E-008
   38.5818750000000        -7.026206270775353E-008
   38.7956250000000        -6.699640542278118E-008
   39.0093750000000        -6.387804203716485E-008
   39.2231250000000        -6.127387123242169E-008
   39.4368750000000        -5.955339563175690E-008
   39.6506250000000        -5.904387069524954E-008
   39.8643750000000        -5.998309222146774E-008
   40.0781250000000        -6.247522710437356E-008
   40.2918750000000        -6.645550086637170E-008
   40.5056250000000        -7.166930599156784E-008
   40.7193750000000        -7.767033770910600E-008
   40.9331250000000        -8.384073566051341E-008
   41.1468750000000        -8.943403097584962E-008
   41.3606250000000        -9.363916938233011E-008
   41.5743750000000        -9.566125938633114E-008
   41.7881250000000        -9.481227710411529E-008
   42.0018750000000        -9.060303573659130E-008
   42.2156250000000        -8.282656094287033E-008
   42.4293750000000        -7.162279546152094E-008
   42.6431250000000        -5.751539025815412E-008
   42.8568750000000        -4.141322254630552E-008
   43.0706250000000        -2.457209823828694E-008
   43.2843750000000        -8.515632244900939E-009
   43.4981250000000         5.081741225201688E-009
   43.7118750000000         1.454264629838821E-008
   43.9256250000000         1.835481900926016E-008
   44.1393750000000         1.534555202697245E-008
   44.3531250000000         4.846646332864060E-009
   44.5668750000000        -1.316689656942914E-008
   44.7806250000000        -3.798071097343985E-008
   44.9943750000000        -6.810176164163702E-008
   45.2081250000000        -1.012868792589668E-007
   45.4218750000000        -1.346454941092909E-007
   45.6356250000000        -1.648172469083854E-007
   45.8493750000000        -1.882187331555393E-007
   46.0631250000000        -2.013468607516299E-007
   46.2768750000000        -2.011196325594452E-007
   46.4906250000000        -1.852291318053811E-007
   46.7043750000000        -1.524766596773192E-007
   46.9181250000000        -1.030569394712295E-007
   47.1318750000000        -3.875762869529066E-008
   47.3456250000000         3.695744004802359E-008
   47.5593750000000         1.190074863497383E-007
   47.7731250000000         2.009139570172165E-007
   47.9868750000000         2.751852336686596E-007
   48.2006250000000         3.338578913017051E-007
   48.4143750000000         3.691691796762963E-007
   48.6281250000000         3.743185467305699E-007
   48.8418750000000         3.442602626012300E-007
   49.0556250000000         2.764563546293754E-007
   49.2693750000000         1.715110060587800E-007
   49.4831250000000         3.360603273332244E-008
   49.6968750000000        -1.293366171933008E-007
   49.9106250000000        -3.058244571697038E-007
   50.1243750000000        -4.813318012538644E-007
   50.3381250000000        -6.392095423073239E-007
   50.5518750000000        -7.619356572026439E-007
   50.7656250000000        -8.326358572182980E-007
   50.9793750000000        -8.367662090474314E-007
   51.1931250000000        -7.638174194092607E-007
   51.4068750000000        -6.088780217598733E-007
   51.6206250000000        -3.738847033292172E-007
   51.8343750000000        -6.839530561417448E-008
   52.0481250000000         2.902549182147280E-007
   52.2618750000000         6.775106720817520E-007
   52.4756250000000         1.062906670706884E-006
   52.6893750000000         1.412100432027932E-006
   52.9031250000000         1.689523474432745E-006
   53.1168750000000         1.861473857865249E-006
   53.3306250000000         1.899409599341873E-006
   53.5443750000000         1.783155901962059E-006
   53.7581250000000         1.503715881219517E-006
   53.9718750000000         1.065379287192467E-006
   54.1856250000000         4.868588835779504E-007
   54.3993750000000        -1.987509903848609E-007
   54.6131250000000        -9.453083372557012E-007
   54.8268750000000        -1.696254528505350E-006
   55.0406250000000        -2.388427051756138E-006
   55.2543750000000        -2.956819543638115E-006
   55.4681250000000        -3.339948283836967E-006
   55.6818750000000        -3.485401833512142E-006
   55.8956250000000        -3.355101520510171E-006
   56.1093750000000        -2.929791907052081E-006
   56.3231250000000        -2.212315542743342E-006
   56.5368750000000        -1.229304413471232E-006
   56.7506250000000        -3.103649238345281E-008
   56.9643750000000         1.310649318428449E-006
   57.1781250000000         2.706325029702685E-006
   57.3918750000000         4.054613534468228E-006
   57.6056250000000         5.249127060289189E-006
   57.8193750000000         6.186210718717011E-006
   58.0331250000000         6.772913475280958E-006
   58.2468750000000         6.934572717637780E-006
   58.4606250000000         6.621414804480226E-006
   58.6743750000000         5.813641709151509E-006
   58.8881250000000         4.524587243039491E-006
   59.1018750000000         2.801674910067884E-006
   59.3156250000000         7.250792096255505E-007
   59.5293750000000        -1.595832956860411E-006
   59.7431250000000        -4.028040780238261E-006
   59.9568750000000        -6.422011321413852E-006
   60.1706250000000        -8.619970221843135E-006
   60.3843750000000        -1.046477587120160E-005
   60.5981250000000        -1.180886935473291E-005
   60.8118750000000        -1.252281579539392E-005
   61.0256250000000        -1.250303262339498E-005
   61.2393750000000        -1.167840355239923E-005
   61.4531250000000        -1.001558747140211E-005
   61.6668750000000        -7.522932139807416E-006
   61.8806250000000        -4.252978070465668E-006
   62.0943750000000        -3.035766436772453E-007
   62.3081250000000         4.182357581670730E-006
   62.5218750000000         9.018485944790830E-006
   62.7356250000000         1.397817974506356E-005
   62.9493750000000         1.879934697625249E-005
   63.1631250000000         2.319123725980083E-005
   63.3768750000000         2.684356624407256E-005
   63.5906250000000         2.943829823606362E-005
   63.8043750000000         3.066434242436401E-005
   64.0181250000000         3.023523841393205E-005
   64.2318750000000         2.790962648421752E-005
   64.4456250000000         2.351392614434144E-005
   64.6593750000000         1.696620733269967E-005
   64.8731250000000         8.299770898502995E-006
   65.0868750000000        -2.315489616382246E-006
   65.3006250000000        -1.455623414826068E-005
   65.5143750000000        -2.793583415027090E-005
   65.7281250000000        -4.180405515118303E-005
   65.9418750000000        -5.535853152766424E-005
   66.1556250000000        -6.766977376050465E-005
   66.3693750000000        -7.772063523975658E-005
   66.5831250000000        -8.446009339305487E-005
   66.7968750000000        -8.686992715586773E-005
   67.0106250000000        -8.404148881985835E-005
   67.2243750000000        -7.525838814371792E-005
   67.4381250000000        -6.007966293880912E-005
   67.6518750000000        -3.841704224840960E-005
   67.8656250000000        -1.059934799548494E-005
   68.0793750000000         2.258296015643145E-005
   68.2931250000000         5.985953747203840E-005
   68.5068750000000         9.949346489766509E-005
   68.7206250000000         1.393295974190537E-004
   68.9343750000000         1.768791311081123E-004
   69.1481250000000         2.094388944622992E-004
   69.3618750000000         2.342410068759101E-004
   69.5756250000000         2.486257231197848E-004
   69.7893750000000         2.502277421274607E-004
   70.0031250000000         2.371642430988033E-004
   70.2168750000000         2.082116384781632E-004
   70.4306250000000         1.629576708684800E-004
   70.6443750000000         1.019161319347765E-004
   70.8581250000000         2.659316753249676E-005
   71.0718750000000        -6.050321197389833E-005
   71.2856250000000        -1.559153286084534E-004
   71.4993750000000        -2.553506047742357E-004
   71.7131250000000        -3.538554345226188E-004
   71.9268750000000        -4.460404115095502E-004
   72.1406250000000        -5.263452883364043E-004
   72.3543750000000        -5.893288909051763E-004
   72.5681250000000        -6.299670658055646E-004
   72.7818750000000        -6.439407998536633E-004
   72.9956250000000        -6.278970227272158E-004
   73.2093750000000        -5.796662806021950E-004
   73.4231250000000        -4.984243330539071E-004
   73.6368750000000        -3.847885552199787E-004
   73.8506250000000        -2.408445138335677E-004
   74.0643750000000        -7.010286060173660E-005
   74.2781250000000         1.226086466301219E-004
   74.4918750000000         3.313090132795737E-004
   74.7056250000000         5.490714547591770E-004
   74.9193750000000         7.682598831035150E-004
   75.1331250000000         9.807789455871516E-004
   75.3468750000000         1.178322499655224E-003
   75.5606250000000         1.352607030116566E-003
   75.7743750000000         1.495579196873652E-003
   75.9881250000000         1.599590158449191E-003
   76.2018750000000         1.657533192528675E-003
   76.4156250000000         1.662945039002285E-003
   76.6293750000000         1.610074936208848E-003
   76.8431250000000         1.493928161412194E-003
   77.0568750000000         1.310292751859751E-003
   77.2706250000000         1.055758805529958E-003
   77.4843750000000         7.277392925394521E-004
   77.6981250000000         3.244997247571068E-004
   77.9118750000000        -1.547984758061629E-004
   78.1256250000000        -7.100392115869388E-004
   78.3393750000000        -1.340079271369848E-003
   78.5531250000000        -2.042667261300232E-003
   78.7668750000000        -2.814361783465159E-003
   78.9806250000000        -3.650458769494538E-003
   79.1943750000000        -4.544938854405551E-003
   79.4081250000000        -5.490445468263881E-003
   79.6218750000000        -6.478302920287891E-003
   79.8356250000000        -7.498581268448093E-003
   80.0493750000000        -8.540211439727699E-003
   80.2631250000000        -9.591150216993492E-003
   80.4768750000000        -1.063859072268998E-002
   80.6906250000000        -1.166921031257010E-002
   80.9043750000000        -1.266944472817536E-002
   81.1181250000000        -1.362577526682773E-002
   81.3318750000000        -1.452501483850170E-002
   81.5456250000000        -1.535457919519452E-002
   81.7593750000000        -1.610273131169794E-002
   81.9731250000000        -1.675878970543474E-002
   82.1868750000000        -1.731329512709024E-002
   82.4006250000000        -1.775813416097747E-002
   82.6143750000000        -1.808662241661168E-002
   82.8281250000000        -1.829355372989335E-002
   83.0418750000000        -1.837522471406584E-002
   83.2556250000000        -1.832944577123027E-002
   83.4693750000000        -1.815555006777610E-002
   83.6831250000000        -1.785441089933442E-002
   83.8968750000000        -1.742847537785946E-002
   84.1106250000000        -1.688181866643103E-002
   84.3243750000000        -1.622021839845725E-002
   84.5381250000000        -1.545124388216825E-002
   84.7518750000000        -1.458434970838689E-002
   84.9656250000000        -1.363095896914458E-002
   85.1793750000000        -1.260451794866840E-002
   85.3931250000000        -1.152050228486099E-002
   85.6068750000000        -1.039635452311864E-002
   85.8206250000000        -9.251334855121123E-003
   86.0343750000000        -8.106270649772587E-003
   86.2481250000000        -6.983195970290789E-003
   86.4618750000000        -5.904879300131811E-003
   86.6756250000000        -4.894245704416004E-003
   86.8893750000000        -3.973708064272100E-003
   87.1031250000000        -3.164430211606716E-003
   87.3168750000000        -2.485552123085057E-003
   87.5306250000000        -1.953413205242556E-003
   87.7443750000000        -1.580813604028883E-003
   87.9581250000000        -1.376355014455278E-003
   88.1718750000000        -1.343901419643017E-003
   88.3856250000000        -1.482196500715559E-003
   88.5993750000000        -1.784668260173498E-003
   88.8131250000000        -2.239442998275824E-003
   89.0268750000000        -2.829580637235318E-003
   89.2406250000000        -3.533532089347376E-003
   89.4543750000000        -4.325807585130691E-003
   89.6681250000000        -5.177833328200101E-003
   89.8818750000000        -6.058963228521711E-003
   90.0956250000000        -6.937603433466240E-003
   90.3093750000000        -7.782400478119268E-003
   90.5231250000000        -8.563439532344281E-003
   90.7368750000000        -9.253397695213673E-003
   90.9506250000000        -9.828598670347950E-003
   91.1643750000000        -1.026991936877650E-002
   91.3781250000000        -1.056350578653627E-002
   91.5918750000000        -1.070126450640102E-002
   91.8056250000000        -1.068110687556751E-002
   92.0193750000000        -1.050693473103067E-002
   92.2331250000000        -1.018836885455792E-002
   92.4468750000000        -9.740233505482096E-003
   92.6606250000000        -9.181821796126196E-003
   92.8743750000000        -8.535976794847518E-003
   93.0881250000000        -7.828031602687011E-003
   93.3018750000000        -7.084657890436246E-003
   93.5156250000000        -6.332676254934898E-003
   93.7293750000000        -5.597883123999595E-003
   93.9431250000000        -4.903947789847555E-003
   94.1568750000000        -4.271429569539992E-003
   94.3706250000000        -3.716959263124883E-003
   94.5843750000000        -3.252621276143714E-003
   94.7981250000000        -2.885563335670957E-003
   95.0118750000000        -2.617850060382880E-003
   95.2256250000000        -2.446565194707582E-003
   95.4393750000000        -2.364155568881863E-003
   95.6531250000000        -2.358998306300273E-003
   95.8668750000000        -2.416161979722468E-003
   96.0806250000000        -2.518322822518198E-003
   96.2943750000000        -2.646789206135705E-003
   96.5081250000000        -2.782581827098533E-003
   96.7218750000000        -2.907513760048799E-003
   96.9356250000000        -3.005213984543753E-003
   97.1493750000000        -3.062040318770678E-003
   97.3631250000000        -3.067832888522010E-003
   97.5768750000000        -3.016467164802185E-003
   97.7906250000000        -2.906175897002676E-003
   98.0043750000000        -2.739621472264060E-003
   98.2181250000000        -2.523713726211144E-003
   98.4318750000000        -2.269182284271041E-003
   98.6456250000000        -1.989926322779872E-003
   98.8593750000000        -1.702177379080484E-003
   99.0731250000000        -1.423521717018520E-003
   99.2868750000000        -1.171837066496468E-003
   99.5006250000000        -9.642037458620470E-004
   99.7143750000000        -8.158518778404296E-004
   99.9281250000000        -7.392044818971275E-004
   100.141875000000        -7.430707680067304E-004
   100.355625000000        -8.320353075674984E-004
   100.569375000000        -1.006077472797721E-003
   100.783125000000        -1.260442349922579E-003
   100.996875000000        -1.585770099522384E-003
   101.210625000000        -1.968476371704267E-003
   101.424375000000        -2.391362782458312E-003
   101.638125000000        -2.834424436316272E-003
   101.851875000000        -3.275811712010018E-003
   102.065625000000        -3.692896495621292E-003
   102.279375000000        -4.063389015412221E-003
   102.493125000000        -4.366450444360585E-003
   102.706875000000        -4.583748318298539E-003
   102.920625000000        -4.700406217129063E-003
   103.134375000000        -4.705805588412560E-003
   103.348125000000        -4.594205494737153E-003
   103.561875000000        -4.365154859920718E-003
   103.775625000000        -4.023680934482233E-003
   103.989375000000        -3.580246743094570E-003
   104.203125000000        -3.050478876791361E-003
   104.416875000000        -2.454674939957694E-003
   104.630625000000        -1.817107168265361E-003
   104.844375000000        -1.165145208906676E-003
   105.058125000000        -5.282268699698194E-004
   105.271875000000         6.328911176576029E-005
   105.485625000000         5.793495108606626E-004
   105.699375000000         9.914692985017045E-004
   105.913125000000         1.273984076614504E-003
   106.126875000000         1.405243117624349E-003
   106.340625000000         1.368692442500429E-003
   106.554375000000         1.153797576105861E-003
   106.768125000000         7.567578867170022E-004
   106.981875000000         1.809691360354454E-004
   107.195625000000        -5.628016836700262E-004
   107.409375000000        -1.456554867274206E-003
   107.623125000000        -2.475522534406882E-003
   107.836875000000        -3.588956587378132E-003
   108.050625000000        -4.761220627238130E-003
   108.264375000000        -5.953148854972010E-003
   108.478125000000        -7.123617981129514E-003
   108.691875000000        -8.231262947481501E-003
   108.905625000000        -9.236255119475059E-003
   109.119375000000        -1.010205372196604E-002
   109.333125000000        -1.079703861613934E-002
   109.546875000000        -1.129593566339573E-002
   109.760625000000        -1.158095507246778E-002
   109.974375000000        -1.164257797579153E-002
   110.188125000000        -1.147994623364563E-002
   110.401875000000        -1.110083386754883E-002
   110.615625000000        -1.052120395414749E-002
   110.829375000000        -9.764380397210976E-003
   111.043125000000        -8.859887777708953E-003
   111.256875000000        -7.842032581664875E-003
   111.470625000000        -6.748313898963838E-003
   111.684375000000        -5.617759961105369E-003
   111.898125000000        -4.489287963824558E-003
   112.111875000000        -3.400178434102531E-003
   112.325625000000        -2.384742514325502E-003
   112.539375000000        -1.473242105568115E-003
   112.753125000000        -6.911004890850432E-004
   112.966875000000        -5.841683098688991E-005
   113.180625000000         4.102259635285431E-004
   113.394375000000         7.056921130853882E-004
   113.608125000000         8.240118432669331E-004
   113.821875000000         7.659490624821972E-004
   114.035625000000         5.364833992933195E-004
   114.249375000000         1.442700406901244E-004
   114.463125000000        -3.988678156325372E-004
   114.676875000000        -1.078373136595660E-003
   114.890625000000        -1.877292974848768E-003
   115.104375000000        -2.776516965944486E-003
   115.318125000000        -3.754932608737951E-003
   115.531875000000        -4.789530438625087E-003
   115.745625000000        -5.855504737505747E-003
   115.959375000000        -6.926402133653623E-003
   116.173125000000        -7.974370458789572E-003
   116.386875000000        -8.970553357918829E-003
   116.600625000000        -9.885662905529516E-003
   116.814375000000        -1.069074404917132E-002
   117.028125000000        -1.135812281432243E-002
   117.241875000000        -1.186250699287913E-002
   117.455625000000        -1.218218582379942E-002
   117.669375000000        -1.230025625101334E-002
   117.883125000000        -1.220578975321183E-002
   118.096875000000        -1.189484707688607E-002
   118.310625000000        -1.137124945723363E-002
   118.524375000000        -1.064702436434740E-002
   118.738125000000        -9.742461005588302E-003
   118.951875000000        -8.685734580982452E-003
   119.165625000000        -7.512086846842328E-003
   119.379375000000        -6.262581654975116E-003
   119.593125000000        -4.982485298054276E-003
   119.806875000000        -3.719350156774241E-003
   120.020625000000        -2.520903936622433E-003
   120.234375000000        -1.432863705920408E-003
   120.448125000000        -4.968025557638917E-004
   120.661875000000         2.518037797203997E-004
   120.875625000000         7.852326220071553E-004
   121.089375000000         1.084772711336033E-003
   121.303125000000         1.141510741238802E-003
   121.516875000000         9.566019243469987E-004
   121.730625000000         5.410137052987761E-004
   121.944375000000        -8.523458850951825E-005
   122.158125000000        -8.942817486676819E-004
   122.371875000000        -1.852002635934373E-003
   122.585625000000        -2.919851291256697E-003
   122.799375000000        -4.056852912213550E-003
   123.013125000000        -5.221623218306066E-003
   123.226875000000        -6.374296971468917E-003
   123.440625000000        -7.478258544166089E-003
   123.654375000000        -8.501585322916165E-003
   123.868125000000        -9.418137823773841E-003