  -1.60312500000000         1.953371262434089E-025
  -1.38937500000000         1.965686224214672E-025
  -1.17562500000000         2.071051972693864E-025
 -0.961875000000000         5.202962189257690E-025
 -0.748125000000000         3.286608883141738E-024
 -0.534375000000000         1.922147234810931E-023
 -0.320625000000000         9.118573976785198E-023
 -0.106875000000000         3.636308160527006E-022
  0.106875000000000         1.255852876724756E-021
  0.320625000000000         3.830725724169477E-021
  0.534375000000000         1.047295582917027E-020
  0.748125000000000         2.597873689774241E-020
  0.961875000000000         5.910624442865069E-020
   1.17562500000000         1.245525234756071E-019
   1.38937500000000         2.452329085957997E-019
   1.60312500000000         4.546611092505023E-019
   1.81687500000000         7.991876569199792E-019
   2.03062500000000         1.339835997946115E-018
   2.24437500000000         2.153482525515349E-018
   2.45812500000000         3.333164464934920E-018
   2.67187500000000         4.987408658293235E-018
   2.88562500000000         7.238496327901015E-018
   3.09937500000000         1.021976680308087E-017
   3.31312500000000         1.407210874932904E-017
   3.52687500000000         1.893991686710278E-017
   3.74062500000000         2.496690120796962E-017
   3.95437500000000         3.229207421857405E-017
   4.16812500000000         4.104638929481137E-017
   4.38187500000000         5.135029127008256E-017
   4.59562500000000         6.331246506382034E-017
   4.80937500000000         7.702990694863479E-017
   5.02312500000000         9.258923144547314E-017
   5.23687500000000         1.100690896208778E-016
   5.45062500000000         1.295433239913898E-016
   5.66437500000000         1.510844139836564E-016
   5.87812500000000         1.747667742292913E-016
   6.09187500000000         2.006693714485558E-016
   6.30562500000000         2.288772637392340E-016
   6.51937500000000         2.594817452892870E-016
   6.73312500000000         2.925789897562792E-016
   6.94687500000000         3.282672822407734E-016
   7.16062500000000         3.666430952822454E-016
   7.37437500000000         4.077964280944183E-016
   7.58812500000000         4.518060694682430E-016
   7.80187500000000         4.987353350775990E-016
   8.01562500000000         5.486289123113219E-016
   8.22937500000000         6.015112575058460E-016
   8.44312500000000         6.573868352937531E-016
   8.65687500000000         7.162421614381397E-016
   8.87062500000000         7.780494413579974E-016
   9.08437500000000         8.427712314441685E-016
   9.29812500000000         9.103654783030313E-016
   9.51187500000000         9.807901029446431E-016
   9.72562500000000         1.054006411348335E-015
   9.93937500000000         1.129980739981076E-015
   10.1531250000000         1.208684014667051E-015
   10.3668750000000         1.290089258751782E-015
   10.5806250000000         1.374167456571976E-015
   10.7943750000000         1.460882399754663E-015
   11.0081250000000         1.550185467000664E-015
   11.2218750000000         1.642011347849447E-015
   11.4356250000000         1.736275532984261E-015
   11.6493750000000         1.832874284005228E-015
   11.8631250000000         1.931687337154732E-015
   12.0768750000000         2.032583198382670E-015
   12.2906250000000         2.135426515489180E-015
   12.5043750000000         2.240086517734568E-015
   12.7181250000000         2.346445540798443E-015
   12.9318750000000         2.454406312449781E-015
   13.1456250000000         2.563897170448007E-015
   13.3593750000000         2.674874391124486E-015
   13.5731250000000         2.787321406277230E-015
   13.7868750000000         2.901245076852615E-015
   14.0006250000000         3.016669632046588E-015
   14.2143750000000         3.133629175258407E-015
   14.4281250000000         3.252159867640639E-015
   14.6418750000000         3.372292807697467E-015
   14.8556250000000         3.494048539386174E-015
   15.0693750000000         3.617433824221481E-015
   15.2831250000000         3.742440832723520E-015
   15.4968750000000         3.869048738144343E-015
   15.7106250000000         3.997227218669624E-015
   15.9243750000000         4.126941336626843E-015
   16.1381250000000         4.258157062597496E-015
   16.3518750000000         4.390846817973048E-015
   16.5656250000000         4.524994521349661E-015
   16.7793750000000         4.660599798413349E-015
   16.9931250000000         4.797681166947069E-015
   17.2068750000000         4.936278180511872E-015
   17.4206250000000         5.076452585414211E-015
   17.6343750000000         5.218288476594764E-015
   17.8481250000000         5.361891580978302E-015
   18.0618750000000         5.507387608394751E-015
   18.2756250000000         5.654919622240647E-015
   18.4893750000000         5.804644482108245E-015
   18.7031250000000         5.956728349650138E-015
   18.9168750000000         6.111341474084758E-015
   19.1306250000000         6.268652563366832E-015
   19.3443750000000         6.428823191186541E-015
   19.5581250000000         6.592002746504533E-015
   19.7718750000000         6.758324474227612E-015
   19.9856250000000         6.927902979939800E-015
   20.1993750000000         7.100833452004656E-015
   20.4131250000000         7.277192574285891E-015
   20.6268750000000         7.457040792705239E-015
   20.8406250000000         7.640425472295991E-015
   21.0543750000000         7.827384286145438E-015
   21.2681250000000         8.017948188931248E-015
   21.4818750000000         8.212143466893555E-015
   21.6956250000000         8.409992618840176E-015
   21.9093750000000         8.611514079797980E-015
   22.1231250000000         8.816721165228028E-015
   22.3368750000000         9.025620804023740E-015
   22.5506250000000         9.238212794651586E-015
   22.7643750000000         9.454490231264529E-015
   22.9781250000000         9.674441556077848E-015
   23.1918750000000         9.898054379775415E-015
   23.4056250000000         1.012532081629510E-014
   23.6193750000000         1.035624368130515E-014
   23.8331250000000         1.059084265741852E-014
   24.0468750000000         1.082915937828977E-014
   24.2606250000000         1.107126039697666E-014
   24.4743750000000         1.131723739372645E-014
   24.6881250000000         1.156720418790228E-014
   24.9018750000000         1.182129077666274E-014
   25.1156250000000         1.207963496613725E-014
   25.3293750000000         1.234237262934147E-014
   25.5431250000000         1.260962784317090E-014
   25.7568750000000         1.288150419152461E-014
   25.9706250000000         1.315807832950961E-014
   26.1843750000000         1.343939663682219E-014
   26.3981250000000         1.372547526215318E-014
   26.6118750000000         1.401630334688317E-014
   26.8256250000000         1.431184877282304E-014
   27.0393750000000         1.461206533821083E-014
   27.2531250000000         1.491689998052160E-014
   27.4668750000000         1.522629868681972E-014
   27.6806250000000         1.554020971633750E-014
   27.8943750000000         1.585858319782206E-014
   28.1081250000000         1.618136663603357E-014
   28.3218750000000         1.650849643228281E-014
   28.5356250000000         1.683988644185810E-014
   28.7493750000000         1.717541524218945E-014
   28.9631250000000         1.751491465872619E-014
   29.1768750000000         1.785816254745011E-014
   29.3906250000000         1.820488315286494E-014
   29.6043750000000         1.855475802767378E-014
   29.8181250000000         1.890744964982192E-014
   30.0318750000000         1.926263841861238E-014
   30.2456250000000         1.962007134728798E-014
   30.4593750000000         1.997961826468121E-014
   30.6731250000000         2.034132843220193E-014
   30.8868750000000         2.070547804992084E-014
   31.1006250000000         2.107259739428012E-014
   31.3143750000000         2.144346627440210E-014
   31.5281250000000         2.181906828594511E-014
   31.7418750000000         2.220049837316252E-014
   31.9556250000000         2.258882455040027E-014
   32.1693750000000         2.298491263279957E-014
   32.3831250000000         2.338923171885010E-014
   32.5968750000000         2.380166654475984E-014
   32.8106250000000         2.422136914394765E-014
   33.0243750000000         2.464668477357849E-014
   33.2381250000000         2.507518439826811E-014
   33.4518750000000         2.550382739072328E-014
   33.6656250000000         2.592926311906226E-014
   33.8793750000000         2.634826009414013E-014
   34.0931250000000         2.675822806434097E-014
   34.3068750000000         2.715777512008428E-014
   34.5206250000000         2.754722233958628E-014
   34.7343750000000         2.792898644096135E-014
   34.9481250000000         2.830774051380605E-014
   35.1618750000000         2.869027615022744E-014
   35.3756250000000         2.908501858319221E-014
   35.5893750000000         2.950118820494688E-014
   35.8031250000000         2.994765354312526E-014
   36.0168750000000         3.043157654203625E-014
   36.2306250000000         3.095700295604107E-014
   36.4443750000000         3.152359054994324E-014
   36.6581250000000         3.212568696780439E-014
   36.8718750000000         3.275196119422272E-014
   37.0856250000000         3.338575339401628E-014
   37.2993750000000         3.400623783924291E-014
   37.5131250000000         3.459039722481951E-014
   37.7268750000000         3.511569325557339E-014
   37.9406250000000         3.556320101437211E-014
   38.1543750000000         3.592086952585219E-014
   38.3681250000000         3.618649417327028E-014
   38.5818750000000         3.636995390029100E-014
   38.7956250000000         3.649428811360517E-014
   39.0093750000000         3.659527044964742E-014
   39.2231250000000         3.671927675697089E-014
   39.4368750000000         3.691943252639276E-014
   39.6506250000000         3.725024227037263E-014
   39.8643750000000         3.776112629766504E-014
   40.0781250000000         3.848949056119660E-014
   40.2918750000000         3.945410502231052E-014
   40.5056250000000         4.064964015040373E-014
   40.7193750000000         4.204319150528951E-014
   40.9331250000000         4.357350063181657E-014
   41.1468750000000         4.515335963338590E-014
   41.3606250000000         4.667538249727065E-014
   41.5743750000000         4.802096457513757E-014
   41.7881250000000         4.907186886886114E-014
   42.0018750000000         4.972351386541506E-014
   42.2156250000000         4.989873531899813E-014
   42.4293750000000         4.956059109457198E-014
   42.6431250000000         4.872270473739460E-014
   42.8568750000000         4.745571847381693E-014
   43.0706250000000         4.588865515281134E-014
   43.2843750000000         4.420436158256290E-014
   43.4981250000000         4.262869935256350E-014
   43.7118750000000         4.141372766577201E-014
   43.9256250000000         4.081574051896119E-014
   44.1393750000000         4.106962667126376E-014
   44.3531250000000         4.236156111613321E-014
   44.5668750000000         4.480245919260599E-014
   44.7806250000000         4.840488060574060E-014
   44.9943750000000         5.306612049451666E-014
   45.2081250000000         5.856003854351619E-014
   45.4218750000000         6.453973823898073E-014
   45.6356250000000         7.055251671983353E-014
   45.8493750000000         7.606757972003475E-014
   46.0631250000000         8.051589647069831E-014
   46.2768750000000         8.334031963337631E-014
   46.4906250000000         8.405280404860934E-014
   46.7043750000000         8.229433596050654E-014
   46.9181250000000         7.789216037418380E-014
   47.1318750000000         7.090820734822938E-014
   47.3456250000000         6.167240455406831E-014
   47.5593750000000         5.079494191127512E-014
   47.7731250000000         3.915260679749719E-014
   47.9868750000000         2.784606226123131E-014
   48.2006250000000         1.812735183197942E-014
   48.4143750000000         1.129985512870014E-014
   48.6281250000000         8.596172955749154E-015
   48.8418750000000         1.104269321027297E-014
   49.0556250000000         1.932252056017656E-014
   49.2693750000000         3.365065274618521E-014
   49.4831250000000         5.367637267673967E-014
   49.6968750000000         7.842747441133144E-014
   49.9106250000000         1.063089361693673E-013
   50.1243750000000         1.351649339302557E-013
   50.3381250000000         1.624077831310939E-013
   50.5518750000000         1.852108394699906E-013
   50.7656250000000         2.007551201177454E-013
   50.9793750000000         2.065121307768863E-013
   51.1931250000000         2.005389199490654E-013
   51.4068750000000         1.817565773027381E-013
   51.6206250000000         1.501810289531582E-013
   51.8343750000000         1.070756689546534E-013
   52.0481250000000         5.499944731941477E-014
   52.2618750000000        -2.268489207670771E-015
   52.4756250000000        -5.993602433546197E-014
   52.6893750000000        -1.125328777869658E-013
   52.9031250000000        -1.543548900767472E-013
   53.1168750000000        -1.799861643136349E-013
   53.3306250000000        -1.848557187634846E-013
   53.5443750000000        -1.657768551879953E-013
   53.7581250000000        -1.214135426143994E-013
   53.9718750000000        -5.261964530448455E-014
   54.1856250000000         3.739583727971792E-014
   54.3993750000000         1.431114324176885E-013
   54.6131250000000         2.569600415479232E-013
   54.8268750000000         3.698153736691349E-013
   55.0406250000000         4.716711659148612E-013
   55.2543750000000         5.524651109490636E-013
   55.4681250000000         6.029813495402127E-013
   55.6818750000000         6.157526659127407E-013
   55.8956250000000         5.858778309274759E-013
   56.1093750000000         5.116719152790148E-013
   56.3231250000000         3.950780806928327E-013
   56.5368750000000         2.417877178610481E-013
   56.7506250000000         6.104035012896008E-014
   56.9643750000000        -1.348967516815770E-013
   57.1781250000000        -3.315395294622774E-013
   57.3918750000000        -5.132309230598634E-013
   57.6056250000000        -6.643363255918273E-013
   57.8193750000000        -7.704932812519437E-013
   58.0331250000000        -8.198106737746616E-013
   58.2468750000000        -8.039151884677867E-013
   58.4606250000000        -7.187551053151216E-013
   58.6743750000000        -5.650923354776057E-013
   58.8881250000000        -3.486409561919475E-013
   59.1018750000000        -7.984152085889160E-014
   59.3156250000000         2.267080981826328E-013
   59.5293750000000         5.531159101194854E-013
   59.7431250000000         8.792807255845700E-013
   59.9568750000000         1.184111628135656E-012
   60.1706250000000         1.446789390682851E-012
   60.3843750000000         1.647981438905455E-012
   60.5981250000000         1.770934909879912E-012
   60.8118750000000         1.802392071674485E-012
   61.0256250000000         1.733296056354494E-012
   61.2393750000000         1.559279212174192E-012
   61.4531250000000         1.280947998700339E-012
   61.6668750000000         9.039941667549802E-013
   61.8806250000000         4.391696671411791E-013
   62.0943750000000        -9.783890760482304E-014
   62.3081250000000        -6.866114340194360E-013
   62.5218750000000        -1.302264658446823E-012
   62.7356250000000        -1.915809243626868E-012
   62.9493750000000        -2.494635554958012E-012
   63.1631250000000        -3.003191646144832E-012
   63.3768750000000        -3.403930283706337E-012
   63.5906250000000        -3.658603094215292E-012
   63.8043750000000        -3.729965934061926E-012
   64.0181250000000        -3.583928859674581E-012
   64.2318750000000        -3.192137091520661E-012
   64.4456250000000        -2.534908793276857E-012
   64.6593750000000        -1.604386192068916E-012
   64.8731250000000        -4.076853382123247E-013
   65.0868750000000         1.030235144349757E-012
   65.3006250000000         2.664315726277336E-012
   65.5143750000000         4.428103332875892E-012
   65.7281250000000         6.233774100501227E-012
   65.9418750000000         7.973778845683650E-012
   66.1556250000000         9.524336982898352E-012
   66.3693750000000         1.075088515400058E-011
   66.5831250000000         1.151543479902665E-011
   66.7968750000000         1.168561766097076E-011
   67.0106250000000         1.114501274480860E-011
   67.2243750000000         9.804168305276659E-012
   67.4381250000000         7.611575385678768E-012
   67.6518750000000         4.563732772690621E-012
   67.8656250000000         7.133829581591156E-013
   68.0793750000000        -3.824992387032378E-012
   68.2931250000000        -8.873242740867340E-012
   68.5068750000000        -1.419184462158764E-011
   68.7206250000000        -1.948684256437317E-011
   68.9343750000000        -2.442155150676641E-011
   69.1481250000000        -2.863278915804794E-011
   69.3618750000000        -3.175103870771468E-011
   69.5756250000000        -3.342358167052372E-011
   69.7893750000000        -3.333931784709046E-011
   70.0031250000000        -3.125373385997476E-011
   70.2168750000000        -2.701231994224832E-011
   70.4306250000000        -2.057068739621359E-011
   70.6443750000000        -1.200971932964168E-011
   70.8581250000000        -1.544298301041471E-012
   71.0718750000000         1.047551074592957E-011
   71.2856250000000         2.357150311364668E-011
   71.4993750000000         3.715276410898914E-011
   71.7131250000000         5.053908522215501E-011
   71.9268750000000         6.299140186462819E-011
   72.1406250000000         7.374776524196624E-011
   72.3543750000000         8.206292228729278E-011
   72.5681250000000         8.724926037896760E-011
   72.7818750000000         8.871670714454647E-011
   72.9956250000000         8.600917827082183E-011
   73.2093750000000         7.883534302991747E-011
   73.4231250000000         6.709181920053707E-011
   73.6368750000000         5.087739328921347E-011
   73.8506250000000         3.049745302374889E-011
   74.0643750000000         6.458471703408351E-012
   74.2781250000000        -2.054695342247878E-011
   74.4918750000000        -4.966338753537206E-011
   74.7056250000000        -7.990252347958348E-011
   74.9193750000000        -1.101777930492813E-010
   75.1331250000000        -1.393413744725729E-010
   75.3468750000000        -1.662213163682081E-010
   75.5606250000000        -1.896566565491671E-010
   75.7743750000000        -2.085287438282400E-010
   75.9881250000000        -2.217874402571720E-010
   76.2018750000000        -2.284714446254785E-010
   76.4156250000000        -2.277225810587345E-010
   76.6293750000000        -2.187944806549845E-010
   76.8431250000000        -2.010565923450964E-010
   77.0568750000000        -1.739948418554044E-010
   77.2706250000000        -1.372104773918587E-010
   77.4843750000000        -9.041867633375701E-011
   77.6981250000000        -3.344833640134656E-011
   77.9118750000000         3.375584570292411E-011
   78.1256250000000         1.111283605588460E-010
   78.3393750000000         1.984748305574322E-010
   78.5531250000000         2.954613736236502E-010
   78.7668750000000         4.016023785396796E-010
   78.9806250000000         5.162481198582785E-010
   79.1943750000000         6.385739295599457E-010
   79.4081250000000         7.675727496611979E-010
   79.6218750000000         9.020527981525597E-010
   79.8356250000000         1.040641794232530E-009
   80.0493750000000         1.181798733100003E-009
   80.2631250000000         1.323833619524057E-009
   80.4768750000000         1.464934921234968E-009
   80.6906250000000         1.603203854313078E-009
   80.9043750000000         1.736694030835632E-009
   81.1181250000000         1.863454545632999E-009
   81.3318750000000         1.981574302826115E-009
   81.5456250000000         2.089225314276757E-009
   81.7593750000000         2.184702849701985E-009
   81.9731250000000         2.266460667349910E-009
   82.1868750000000         2.333140068235849E-009
   82.4006250000000         2.383592141093086E-009
   82.6143750000000         2.416893231791718E-009
   82.8281250000000         2.432354306774544E-009
   83.0418750000000         2.429525413928468E-009
   83.2556250000000         2.408196814898498E-009
   83.4693750000000         2.368398525276070E-009
   83.6831250000000         2.310399930007073E-009
   83.8968750000000         2.234710841829857E-009
   84.1106250000000         2.142084866440840E-009
   84.3243750000000         2.033525277932353E-009
   84.5381250000000         1.910292858615327E-009
   84.7518750000000         1.773914397304760E-009
   84.9656250000000         1.626189852573570E-009
   85.1793750000000         1.469195651818194E-009
   85.3931250000000         1.305281281351818E-009
   85.6068750000000         1.137056277279248E-009
   85.8206250000000         9.673649787157358E-010
   86.0343750000000         7.992469551210397E-010
   86.2481250000000         6.358818426417413E-010
   86.4618750000000         4.805183699564105E-010
   86.6756250000000         3.363885506121003E-010
   86.8893750000000         2.066092790101403E-010
   87.1031250000000         9.407479496126471E-011
   87.3168750000000         1.344579545714924E-012
   87.5306250000000        -6.946787865195669E-011
   87.7443750000000        -1.167994316008701E-010
   87.9581250000000        -1.397285023654798E-010
   88.1718750000000        -1.380471459431258E-010
   88.3856250000000        -1.123084739649533E-010
   88.5993750000000        -6.384495140715196E-011
   88.8131250000000         5.245607062034153E-012
   89.0268750000000         9.214791718698951E-011
   89.2406250000000         1.934107729633560E-010
   89.4543750000000         3.050601834209221E-010
   89.6681250000000         4.227401762491354E-010
   89.8818750000000         5.418756436246954E-010
   90.0956250000000         6.578501528164397E-010
   90.3093750000000         7.661905382093211E-010
   90.5231250000000         8.627494112083463E-010
   90.7368750000000         9.438765253748253E-010
   90.9506250000000         1.006570243730291E-009
   91.1643750000000         1.048601170793279E-009
   91.3781250000000         1.068601299913578E-009
   91.5918750000000         1.066113723275053E-009
   91.8056250000000         1.041599967195910E-009
   92.0193750000000         9.964042368475033E-010
   92.2331250000000         9.326761546909670E-010
   92.4468750000000         8.532558206765484E-010
   92.6606250000000         7.615270753863054E-010
   92.8743750000000         6.612465852851174E-010
   93.0881250000000         5.563576854382284E-010
   93.3018750000000         4.507987279499286E-010
   93.5156250000000         3.483159432485255E-010
   93.7293750000000         2.522905098412739E-010
   93.9431250000000         1.655886655908312E-010
   94.1568750000000         9.044233367290841E-011
   94.3706250000000         2.836596376532132E-011
   94.5843750000000        -1.988678659025821E-011
   94.7981250000000        -5.432515673591912E-011
   95.0118750000000        -7.568309041920274E-011
   95.2256250000000        -8.534385586958083E-011
   95.4393750000000        -8.523255658568386E-011
   95.6531250000000        -7.768324419375289E-011
   95.8668750000000        -6.528855608306541E-011
   96.0806250000000        -5.074053191427716E-011
   96.2943750000000        -3.667148775321496E-011
   96.5081250000000        -2.550354952411989E-011
   96.7218750000000        -1.931470382512822E-011
   96.9356250000000        -1.972807547928708E-011
   97.1493750000000        -2.782967029584219E-011
   97.3631250000000        -4.411812601906535E-011
   97.5768750000000        -6.848819982833089E-011
   97.7906250000000        -1.002478932868551E-010
   98.0043750000000        -1.381673757068236E-010
   98.2181250000000        -1.805563032265447E-010
   98.4318750000000        -2.253648159454298E-010
   98.6456250000000        -2.703024823018932E-010
   98.8593750000000        -3.129687805941431E-010
   99.0731250000000        -3.509883732080501E-010
   99.2868750000000        -3.821444311917345E-010
   99.5006250000000        -4.045035797555849E-010
   99.7143750000000        -4.165266200360134E-010
   99.9281250000000        -4.171599905672601E-010
   100.141875000000        -4.059039097032750E-010
   100.355625000000        -3.828542329479878E-010
   100.569375000000        -3.487162144517778E-010
   100.783125000000        -3.047895326932343E-010
   100.996875000000        -2.529250865076026E-010
   101.210625000000        -1.954551568994773E-010
   101.424375000000        -1.350995378595652E-010
   101.638125000000        -7.485114759574653E-011
   101.851875000000        -1.784542686712528E-011
   102.065625000000         3.278149718670786E-011
   102.279375000000         7.404036537579811E-011
   102.493125000000         1.032361499654269E-010
   102.706875000000         1.181090852841643E-010
   102.920625000000         1.169631671631555E-010
   103.134375000000         9.877606351242230E-011
   103.348125000000         6.328473650998520E-011
   103.561875000000         1.104167181189333E-011
   103.775625000000        -5.656254394352622E-011
   103.989375000000        -1.373134539097678E-010
   104.203125000000        -2.282255755512601E-010
   104.416875000000        -3.256340878418961E-010
   104.630625000000        -4.253238304698570E-010
   104.844375000000        -5.226922042155747E-010
   105.058125000000        -6.129406433300285E-010
   105.271875000000        -6.912874742059746E-010
   105.485625000000        -7.531932932337485E-010
   105.699375000000        -7.945886109111939E-010
   105.913125000000        -8.120925386632441E-010
   106.126875000000        -8.032108490412752E-010
   106.340625000000        -7.665019087923001E-010
   106.554375000000        -7.016998279291275E-010
   106.768125000000        -6.097857083052599E-010
   106.981875000000        -4.930000890218698E-010
   107.195625000000        -3.547925006170055E-010
   107.409375000000        -1.997073326351908E-010
   107.623125000000        -3.320882015177327E-011
   107.836875000000         1.385483450957512E-010
   108.050625000000         3.089927114038129E-010
   108.264375000000         4.714408305010657E-010
   108.478125000000         6.194173065474651E-010
   108.691875000000         7.469726640716544E-010
   108.905625000000         8.489809139826193E-010
   109.119375000000         9.213991891503534E-010
   109.333125000000         9.614734989398275E-010
   109.546875000000         9.678774687367344E-010
   109.760625000000         9.407747502384159E-010
   109.974375000000         8.818003905174718E-010
   110.188125000000         7.939615386599728E-010
   110.401875000000         6.814630995258420E-010
   110.615625000000         5.494689363683054E-010
   110.829375000000         4.038135983923788E-010
   111.043125000000         2.506829569265991E-010
   111.256875000000         9.628428676715908E-011
   111.470625000000        -5.347297247520245E-011
   111.684375000000        -1.932653873992204E-010
   111.898125000000        -3.185946085230380E-010
   112.111875000000        -4.259630508485566E-010
   112.325625000000        -5.129766846608872E-010
   112.539375000000        -5.783709772227848E-010
   112.753125000000        -6.219618457116651E-010
   112.966875000000        -6.445291193655854E-010
   113.180625000000        -6.476450027726649E-010
   113.394375000000        -6.334639682267214E-010
   113.608125000000        -6.044930532670797E-010
   113.821875000000        -5.633624852263530E-010
   114.035625000000        -5.126158191416486E-010
   114.249375000000        -4.545364250587309E-010
   114.463125000000        -3.910234028602943E-010
   114.676875000000        -3.235251686009780E-010
   114.890625000000        -2.530334728115114E-010
   115.104375000000        -1.801349632487572E-010
   115.318125000000        -1.051120918693137E-010
   115.531875000000        -2.808065814028682E-011
   115.745625000000         5.085202441469404E-011
   115.959375000000         1.314261650784900E-010
   116.173125000000         2.130837296808272E-010
   116.386875000000         2.948543776412760E-010
   116.600625000000         3.752866087326332E-010
   116.814375000000         4.524333886068096E-010
   117.028125000000         5.238964320984020E-010
   117.241875000000         5.869278391523627E-010
   117.455625000000         6.385823904831009E-010
   117.669375000000         6.759089971804928E-010
   117.883125000000         6.961659840940129E-010
   118.096875000000         6.970424027431226E-010
   118.310625000000         6.768666273444268E-010
   118.524375000000         6.347841616903459E-010
   118.738125000000         5.708888076782453E-010
   118.951875000000         4.862949173390218E-010
   119.165625000000         3.831430546649370E-010
   119.379375000000         2.645366326867149E-010
   119.593125000000         1.344125185665163E-010
   119.806875000000        -2.646239790010663E-012
   120.020625000000        -1.416429415612235E-010
   120.234375000000        -2.774289678013484E-010
   120.448125000000        -4.049765607835951E-010
   120.661875000000        -5.196438252217302E-010
   120.875625000000        -6.174139449345246E-010
   121.089375000000        -6.950928005380109E-010
   121.303125000000        -7.504525305937583E-010
   121.516875000000        -7.823128003897713E-010
   121.730625000000        -7.905562684412958E-010
   121.944375000000        -7.760795815676817E-010
   122.158125000000        -7.406858006270197E-010
   122.371875000000        -6.869281128873609E-010
   122.585625000000        -6.179177397216785E-010
   122.799375000000        -5.371109006245070E-010
   123.013125000000        -4.480904445543515E-010
   123.226875000000        -3.543573065358212E-010
   123.440625000000        -2.591453867736077E-010
   123.654375000000        -1.652709601367618E-010
   123.868125000000        -7.502454890279287E-011