  -1.60312500000000        -1.055314086823697E-023
  -1.38937500000000         4.931849280102173E-017
  -1.17562500000000         3.400545179375949E-016
 -0.961875000000000         1.606135236218530E-015
 -0.748125000000000         6.117495950400105E-015
 -0.534375000000000         1.952611705970812E-014
 -0.320625000000000         5.307230684949535E-014
 -0.106875000000000         1.243049996722946E-013
  0.106875000000000         2.537777052884102E-013
  0.320625000000000         4.567268243431117E-013
  0.534375000000000         7.320766383378295E-013
  0.748125000000000         1.052489857719458E-012
  0.961875000000000         1.358433385996171E-012
   1.17562500000000         1.555629149405031E-012
   1.38937500000000         1.513955113966149E-012
   1.60312500000000         1.068101299517383E-012
   1.81687500000000         1.925089233600366E-014
   2.03062500000000        -1.860176420420046E-012
   2.24437500000000        -4.813753011573123E-012
   2.45812500000000        -9.090468694012256E-012
   2.67187500000000        -1.491804604702715E-011
   2.88562500000000        -2.248569982095528E-011
   3.09937500000000        -3.191328141434289E-011
   3.31312500000000        -4.323104267996489E-011
   3.52687500000000        -5.636348937158302E-011
   3.74062500000000        -7.111987692821735E-011
   3.95437500000000        -8.720343795345583E-011
   4.16812500000000        -1.042285409555427E-010
   4.38187500000000        -1.217581948210552E-010
   4.59562500000000        -1.393437611835417E-010
   4.80937500000000        -1.565730075927905E-010
   5.02312500000000        -1.731192403879650E-010
   5.23687500000000        -1.887698262005507E-010
   5.45062500000000        -2.034391634545115E-010
   5.66437500000000        -2.171648696088064E-010
   5.87812500000000        -2.300706332886141E-010
   6.09187500000000        -2.423100886408123E-010
   6.30562500000000        -2.540027930515315E-010
   6.51937500000000        -2.651685297313733E-010
   6.73312500000000        -2.756664613971292E-010
   6.94687500000000        -2.851721158412220E-010
   7.16062500000000        -2.931734705939331E-010
   7.37437500000000        -2.990293690779553E-010
   7.58812500000000        -3.020381701778227E-010
   7.80187500000000        -3.015494752858566E-010
   8.01562500000000        -2.970765030929839E-010
   8.22937500000000        -2.884020339837568E-010
   8.44312500000000        -2.756433861229995E-010
   8.65687500000000        -2.592816468511870E-010
   8.87062500000000        -2.401218544144888E-010
   9.08437500000000        -2.192028748633066E-010
   9.29812500000000        -1.976652042918542E-010
   9.51187500000000        -1.765866312097286E-010
   9.72562500000000        -1.568336739242894E-010
   9.93937500000000        -1.389365025203691E-010
   10.1531250000000        -1.230200890754461E-010
   10.3668750000000        -1.088132157566169E-010
   10.5806250000000        -9.572049084323701E-011
   10.7943750000000        -8.296244600814074E-011
   11.0081250000000        -6.975199984436779E-011
   11.2218750000000        -5.547157948478599E-011
   11.4356250000000        -3.982559772589678E-011
   11.6493750000000        -2.292670508625192E-011
   11.8631250000000        -5.300336444148986E-012
   12.0768750000000         1.218714598105179E-011
   12.2906250000000         2.849745553443977E-011
   12.5043750000000         4.261127355622642E-011
   12.7181250000000         5.376016785762917E-011
   12.9318750000000         6.160024749112826E-011
   13.1456250000000         6.634337880297250E-011
   13.3593750000000         6.877847662834769E-011
   13.5731250000000         7.019718359066537E-011
   13.7868750000000         7.222110674551192E-011
   14.0006250000000         7.656425639154716E-011
   14.2143750000000         8.476427441592650E-011
   14.4281250000000         9.793798378334418E-011
   14.6418750000000         1.165852729843144E-010
   14.8556250000000         1.404982138155481E-010
   15.0693750000000         1.687751535378731E-010
   15.2831250000000         1.999382831722261E-010
   15.4968750000000         2.321386893503693E-010
   15.7106250000000         2.634060994346067E-010
   15.9243750000000         2.919036775487731E-010
   16.1381250000000         3.161443468455451E-010
   16.3518750000000         3.351385606919050E-010
   16.5656250000000         3.484457968027341E-010
   16.7793750000000         3.561370667784383E-010
   16.9931250000000         3.586874072625374E-010
   17.2068750000000         3.568102586195544E-010
   17.4206250000000         3.512922361978069E-010
   17.6343750000000         3.428434798893152E-010
   17.8481250000000         3.320010113705369E-010
   18.0618750000000         3.190988584598650E-010
   18.2756250000000         3.042932792258473E-010
   18.4893750000000         2.876578678889776E-010
   18.7031250000000         2.692790187575694E-010
   18.9168750000000         2.493741888084089E-010
   19.1306250000000         2.283651653863482E-010
   19.3443750000000         2.069131880716620E-010
   19.5581250000000         1.858960524496847E-010
   19.7718750000000         1.663364808587945E-010
   19.9856250000000         1.492951624208497E-010
   20.1993750000000         1.357459847172656E-010
   20.4131250000000         1.264657176183505E-010
   20.6268750000000         1.219482735892099E-010
   20.8406250000000         1.223621396719657E-010
   21.0543750000000         1.275530021318473E-010
   21.2681250000000         1.370850231449847E-010
   21.4818750000000         1.503080756911654E-010
   21.6956250000000         1.664393385649648E-010
   21.9093750000000         1.846319360145002E-010
   22.1231250000000         2.040379462379908E-010
   22.3368750000000         2.238401357315649E-010
   22.5506250000000         2.432680187603203E-010
   22.7643750000000         2.616040020502610E-010
   22.9781250000000         2.781832268036550E-010
   23.1918750000000         2.924039011111447E-010
   23.4056250000000         3.037514922729895E-010
   23.6193750000000         3.118348799456108E-010
   23.8331250000000         3.164353231311500E-010
   24.0468750000000         3.175553857109515E-010
   24.2606250000000         3.154479539719519E-010
   24.4743750000000         3.106320696022220E-010
   24.6881250000000         3.038670519922578E-010
   24.9018750000000         2.961028063351570E-010
   25.1156250000000         2.883957881231797E-010
   25.3293750000000         2.818200867635346E-010
   25.5431250000000         2.773709283464943E-010
   25.7568750000000         2.758903264651471E-010
   25.9706250000000         2.780193444602336E-010
   26.1843750000000         2.841823737392328E-010
   26.3981250000000         2.946026287702673E-010
   26.6118750000000         3.093465686130617E-010
   26.8256250000000         3.283691361814738E-010
   27.0393750000000         3.515545856941755E-010
   27.2531250000000         3.787419782039747E-010
   27.4668750000000         4.097197931688205E-010
   27.6806250000000         4.441951022178556E-010
   27.8943750000000         4.817423609422137E-010
   28.1081250000000         5.217597334145727E-010
   28.3218750000000         5.634257675353409E-010
   28.5356250000000         6.056934637301887E-010
   28.7493750000000         6.473262676617525E-010
   28.9631250000000         6.869772639048277E-010
   29.1768750000000         7.233015968247796E-010
   29.3906250000000         7.550985462432471E-010
   29.6043750000000         7.814477775878037E-010
   29.8181250000000         8.018211975516893E-010
   30.0318750000000         8.161573866783760E-010
   30.2456250000000         8.248717461847284E-010
   30.4593750000000         8.288070545367692E-010
   30.6731250000000         8.291314917751797E-010
   30.8868750000000         8.271982764641583E-010
   31.1006250000000         8.243856951625399E-010
   31.3143750000000         8.219505753170652E-010
   31.5281250000000         8.209091339770507E-010
   31.7418750000000         8.219664570329750E-010
   31.9556250000000         8.254934097222335E-010
   32.1693750000000         8.315568411624051E-010
   32.3831250000000         8.399805679807618E-010
   32.5968750000000         8.504260235297161E-010
   32.8106250000000         8.624754785416988E-010
   33.0243750000000         8.757008736879187E-010
   33.2381250000000         8.896964315650677E-010
   33.4518750000000         9.040988184065295E-010
   33.6656250000000         9.185675305194378E-010
   33.8793750000000         9.327612945056743E-010
   34.0931250000000         9.463087398796467E-010
   34.3068750000000         9.587874739986344E-010
   34.5206250000000         9.697344669242267E-010
   34.7343750000000         9.786676670995411E-010
   34.9481250000000         9.851380414942734E-010
   35.1618750000000         9.887947946745121E-010
   35.3756250000000         9.894457582652156E-010
   35.5893750000000         9.871189006759208E-010
   35.8031250000000         9.820844594148264E-010
   36.0168750000000         9.748637628095660E-010
   36.2306250000000         9.661932677307434E-010
   36.4443750000000         9.569622668934464E-010
   36.6581250000000         9.481337757348591E-010
   36.8718750000000         9.406462173804602E-010
   37.0856250000000         9.353287094342547E-010
   37.2993750000000         9.328185015408198E-010
   37.5131250000000         9.335064270367347E-010
   37.7268750000000         9.375157390709897E-010
   37.9406250000000         9.446959884729995E-010
   38.1543750000000         9.546595883972771E-010
   38.3681250000000         9.668276707156947E-010
   38.5818750000000         9.805018351940294E-010
   38.7956250000000         9.949358152019573E-010
   39.0093750000000         1.009418105596496E-009
   39.2231250000000         1.023338913742768E-009
   39.4368750000000         1.036257309168552E-009
   39.6506250000000         1.047936524035339E-009
   39.8643750000000         1.058369355795323E-009
   40.0781250000000         1.067783090984759E-009
   40.2918750000000         1.076604008738289E-009
   40.5056250000000         1.085410935625429E-009
   40.7193750000000         1.094868127978069E-009
   40.9331250000000         1.105651018518243E-009
   41.1468750000000         1.118351775910459E-009
   41.3606250000000         1.133421384026235E-009
   41.5743750000000         1.151106390833046E-009
   41.7881250000000         1.171428318808264E-009
   42.0018750000000         1.194184920385761E-009
   42.2156250000000         1.218981472446073E-009
   42.4293750000000         1.245298167199741E-009
   42.6431250000000         1.272559158734552E-009
   42.8568750000000         1.300209552180229E-009
   43.0706250000000         1.327785955382526E-009
   43.2843750000000         1.354960561743199E-009
   43.4981250000000         1.381554158553449E-009
   43.7118750000000         1.407527870156707E-009
   43.9256250000000         1.432941105242295E-009
   44.1393750000000         1.457899031346138E-009
   44.3531250000000         1.482487516575459E-009
   44.5668750000000         1.506730232058249E-009
   44.7806250000000         1.530553545222919E-009
   44.9943750000000         1.553782624353931E-009
   45.2081250000000         1.576163135834849E-009
   45.4218750000000         1.597404854893962E-009
   45.6356250000000         1.617233399704485E-009
   45.8493750000000         1.635440544408614E-009
   46.0631250000000         1.651923211945530E-009
   46.2768750000000         1.666693315637424E-009
   46.4906250000000         1.679862529170716E-009
   46.7043750000000         1.691602167703465E-009
   46.9181250000000         1.702081455378054E-009
   47.1318750000000         1.711408090187806E-009
   47.3456250000000         1.719575653597677E-009
   47.5593750000000         1.726434498163488E-009
   47.7731250000000         1.731695871545031E-009
   47.9868750000000         1.734980854006705E-009
   48.2006250000000         1.735889181210788E-009
   48.4143750000000         1.734100394891057E-009
   48.6281250000000         1.729478761809898E-009
   48.8418750000000         1.722159589762063E-009
   49.0556250000000         1.712614685778121E-009
   49.2693750000000         1.701667869236728E-009
   49.4831250000000         1.690461326862136E-009
   49.6968750000000         1.680375209048760E-009
   49.9106250000000         1.672908467547614E-009
   50.1243750000000         1.669528821190447E-009
   50.3381250000000         1.671526255370628E-009
   50.5518750000000         1.679877531784621E-009
   50.7656250000000         1.695143387181345E-009
   50.9793750000000         1.717412347529666E-009
   51.1931250000000         1.746301478834304E-009
   51.4068750000000         1.781001914662518E-009
   51.6206250000000         1.820374292249812E-009
   51.8343750000000         1.863063882548707E-009
   52.0481250000000         1.907636717503505E-009
   52.2618750000000         1.952701226309078E-009
   52.4756250000000         1.997006296619728E-009
   52.6893750000000         2.039509011051827E-009
   52.9031250000000         2.079396962432372E-009
   53.1168750000000         2.116077844064041E-009
   53.3306250000000         2.149128523935340E-009
   53.5443750000000         2.178233497155417E-009
   53.7581250000000         2.203114893955546E-009
   53.9718750000000         2.223479033900350E-009
   54.1856250000000         2.238987118075226E-009
   54.3993750000000         2.249259497104722E-009
   54.6131250000000         2.253917803732476E-009
   54.8268750000000         2.252656831761591E-009
   55.0406250000000         2.245335084776893E-009
   55.2543750000000         2.232065679140785E-009
   55.4681250000000         2.213290507821211E-009
   55.6818750000000         2.189821067095360E-009
   55.8956250000000         2.162824619881258E-009
   56.1093750000000         2.133765100481440E-009
   56.3231250000000         2.104290614416138E-009
   56.5368750000000         2.076086325534397E-009
   56.7506250000000         2.050707923510745E-009
   56.9643750000000         2.029430824942133E-009
   57.1781250000000         2.013129308203166E-009
   57.3918750000000         2.002209979914026E-009
   57.6056250000000         1.996611551946643E-009
   57.8193750000000         1.995868995892462E-009
   58.0331250000000         1.999240595038626E-009
   58.2468750000000         2.005860193395430E-009
   58.4606250000000         2.014901876654746E-009
   58.6743750000000         2.025719289939628E-009
   58.8881250000000         2.037946616842684E-009
   59.1018750000000         2.051528443785082E-009
   59.3156250000000         2.066689428721150E-009
   59.5293750000000         2.083852268456885E-009
   59.7431250000000         2.103512035310773E-009
   59.9568750000000         2.126115308382260E-009
   60.1706250000000         2.151945824672442E-009
   60.3843750000000         2.181080908107378E-009
   60.5981250000000         2.213378883354970E-009
   60.8118750000000         2.248550930471216E-009
   61.0256250000000         2.286271454552009E-009
   61.2393750000000         2.326301171707383E-009
   61.4531250000000         2.368621822372938E-009
   61.6668750000000         2.413500200994080E-009
   61.8806250000000         2.461505099426719E-009
   62.0943750000000         2.513436301784610E-009
   62.3081250000000         2.570174844088609E-009
   62.5218750000000         2.632481619061052E-009
   62.7356250000000         2.700767172315611E-009
   62.9493750000000         2.774874074444933E-009
   63.1631250000000         2.853925398017273E-009
   63.3768750000000         2.936248099324718E-009
   63.5906250000000         3.019403154564247E-009
   63.8043750000000         3.100325386653827E-009
   64.0181250000000         3.175541050261755E-009
   64.2318750000000         3.241445786521192E-009
   64.4456250000000         3.294598599068860E-009
   64.6593750000000         3.331991704138564E-009
   64.8731250000000         3.351266367306676E-009
   65.0868750000000         3.350853886881278E-009
   65.3006250000000         3.330042334815579E-009
   65.5143750000000         3.288965837674429E-009
   65.7281250000000         3.228557988923132E-009
   65.9418750000000         3.150471402147465E-009
   66.1556250000000         3.057008292881604E-009
   66.3693750000000         2.951059730500791E-009
   66.5831250000000         2.836054619928287E-009
   66.7968750000000         2.715940675482814E-009
   67.0106250000000         2.595117561690628E-009
   67.2243750000000         2.478362630471187E-009
   67.4381250000000         2.370682883987646E-009
   67.6518750000000         2.277101552036411E-009
   67.8656250000000         2.202375568385674E-009
   68.0793750000000         2.150660651290255E-009
   68.2931250000000         2.125177014318143E-009
   68.5068750000000         2.127885532115481E-009
   68.7206250000000         2.159262286717961E-009
   68.9343750000000         2.218176009395304E-009
   69.1481250000000         2.301921061283243E-009
   69.3618750000000         2.406398487710987E-009
   69.5756250000000         2.526434998962492E-009
   69.7893750000000         2.656193209028316E-009
   70.0031250000000         2.789649842485813E-009
   70.2168750000000         2.921053847851269E-009
   70.4306250000000         3.045330626928384E-009
   70.6443750000000         3.158396217701019E-009
   70.8581250000000         3.257343240600140E-009
   71.0718750000000         3.340500416196282E-009
   71.2856250000000         3.407392551129240E-009
   71.4993750000000         3.458608231681205E-009
   71.7131250000000         3.495625873509445E-009
   71.9268750000000         3.520622178648540E-009
   72.1406250000000         3.536290039668442E-009
   72.3543750000000         3.545672687982524E-009
   72.5681250000000         3.552019870285873E-009
   72.7818750000000         3.558652298840924E-009
   72.9956250000000         3.568809431425333E-009
   73.2093750000000         3.585474049600564E-009
   73.4231250000000         3.611156209954467E-009
   73.6368750000000         3.647644788054190E-009
   73.8506250000000         3.695735930153809E-009
   74.0643750000000         3.754965521888790E-009
   74.2781250000000         3.823389150434809E-009
   74.4918750000000         3.897436011685026E-009
   74.7056250000000         3.971866972102855E-009
   74.9193750000000         4.039873842487976E-009
   75.1331250000000         4.093289815999176E-009
   75.3468750000000         4.122936985679359E-009
   75.5606250000000         4.119049450981471E-009
   75.7743750000000         4.071753149305355E-009
   75.9881250000000         3.971541937282260E-009
   76.2018750000000         3.809732746456688E-009
   76.4156250000000         3.578840558190345E-009
   76.6293750000000         3.272866610863003E-009
   76.8431250000000         2.887505642811315E-009
   77.0568750000000         2.420251120161517E-009
   77.2706250000000         1.870439267370583E-009
   77.4843750000000         1.239235876304931E-009
   77.6981250000000         5.296087857104392E-010
   77.9118750000000        -2.537440376178712E-010
   78.1256250000000        -1.104439073581715E-009
   78.3393750000000        -2.014487436061397E-009
   78.5531250000000        -2.974372925151138E-009
   78.7668750000000        -3.973171920049502E-009
   78.9806250000000        -4.998692312790069E-009
   79.1943750000000        -6.037673583138148E-009
   79.4081250000000        -7.076031042603131E-009
   79.6218750000000        -8.099149462213855E-009
   79.8356250000000        -9.092212508168428E-009
   80.0493750000000        -1.004055386494148E-008
   80.2631250000000        -1.093002354491135E-008
   80.4768750000000        -1.174733868214097E-008
   80.6906250000000        -1.248040966789662E-008
   80.9043750000000        -1.311863986447550E-008
   81.1181250000000        -1.365318236099804E-008
   81.3318750000000        -1.407715011627382E-008
   81.5456250000000        -1.438578307706977E-008
   81.7593750000000        -1.457656937931458E-008
   81.9731250000000        -1.464931981342526E-008
   82.1868750000000        -1.460618639915409E-008
   82.4006250000000        -1.445162654956031E-008
   82.6143750000000        -1.419231225437229E-008
   82.8281250000000        -1.383695388997096E-008
   83.0418750000000        -1.339608539725100E-008
   83.2556250000000        -1.288175805911088E-008
   83.4693750000000        -1.230719067004026E-008
   83.6831250000000        -1.168637182003240E-008
   83.8968750000000        -1.103362415600334E-008
   84.1106250000000        -1.036317515526050E-008
   84.3243750000000        -9.688720131802577E-009
   84.5381250000000        -9.023033981973533E-009
   84.7518750000000        -8.377620830561806E-009
   84.9656250000000        -7.762433359745812E-009
   85.1793750000000        -7.185665755332299E-009
   85.3931250000000        -6.653625740047495E-009
   85.6068750000000        -6.170686839033842E-009
   85.8206250000000        -5.739304065045333E-009
   86.0343750000000        -5.360116824086138E-009
   86.2481250000000        -5.032079261310513E-009
   86.4618750000000        -4.752646858736996E-009
   86.6756250000000        -4.517983676136013E-009
   86.8893750000000        -4.323185772543798E-009
   87.1031250000000        -4.162502976004773E-009
   87.3168750000000        -4.029566845773384E-009
   87.5306250000000        -3.917591141316122E-009
   87.7443750000000        -3.819583754486007E-009
   87.9581250000000        -3.728539574021921E-009
   88.1718750000000        -3.637647284640176E-009
   88.3856250000000        -3.540481089593269E-009
   88.5993750000000        -3.431227035320045E-009
   88.8131250000000        -3.304893770879775E-009
   89.0268750000000        -3.157539361770288E-009
   89.2406250000000        -2.986487483296814E-009
   89.4543750000000        -2.790509161787486E-009
   89.6681250000000        -2.569955517737983E-009
   89.8818750000000        -2.326824936721289E-009
   90.0956250000000        -2.064730646028885E-009
   90.3093750000000        -1.788770909457133E-009
   90.5231250000000        -1.505280908331010E-009
   90.7368750000000        -1.221505763587638E-009
   90.9506250000000        -9.451732355349365E-010
   91.1643750000000        -6.840336403800029E-010
   91.3781250000000        -4.453944880426586E-010
   91.5918750000000        -2.356674407999201E-010
   91.8056250000000        -6.000487775741826E-011
   92.0193750000000         7.798060284731134E-011
   92.2331250000000         1.763758041409795E-010
   92.4468750000000         2.349968524241354E-010
   92.6606250000000         2.553133108996987E-010
   92.8743750000000         2.402599150710282E-010
   93.0881250000000         1.939752721726422E-010
   93.3018750000000         1.214884559161941E-010
   93.5156250000000         2.837319291805075E-011
   93.7293750000000        -7.959395254679910E-011
   93.9431250000000        -1.967726806339877E-010
   94.1568750000000        -3.179630254081515E-010
   94.3706250000000        -4.386780887449986E-010
   94.5843750000000        -5.553825520795145E-010
   94.7981250000000        -6.656699101183512E-010
   95.0118750000000        -7.683985872994462E-010
   95.2256250000000        -8.637540323485304E-010
   95.4393750000000        -9.532430770572611E-010
   95.6531250000000        -1.039594017214667E-009
   95.8668750000000        -1.126586264597562E-009
   96.0806250000000        -1.218765001259949E-009
   96.2943750000000        -1.321106204665596E-009
   96.5081250000000        -1.438603762070998E-009
   96.7218750000000        -1.575822715423084E-009
   96.9356250000000        -1.736456537196589E-009
   97.1493750000000        -1.922920994216499E-009
   97.3631250000000        -2.136003483019193E-009
   97.5768750000000        -2.374622937246020E-009
   97.7906250000000        -2.635709360543151E-009
   98.0043750000000        -2.914201055308664E-009
   98.2181250000000        -3.203190457973400E-009
   98.4318750000000        -3.494187704326918E-009
   98.6456250000000        -3.777486772586129E-009
   98.8593750000000        -4.042622359717817E-009
   99.0731250000000        -4.278889957074941E-009
   99.2868750000000        -4.475891691780022E-009
   99.5006250000000        -4.624093184060405E-009
   99.7143750000000        -4.715360494658801E-009
   99.9281250000000        -4.743440267066908E-009
   100.141875000000        -4.704375913286844E-009
   100.355625000000        -4.596825622086511E-009
   100.569375000000        -4.422250361246039E-009
   100.783125000000        -4.184959960156380E-009
   100.996875000000        -3.892018334988778E-009
   101.210625000000        -3.552978706630412E-009
   101.424375000000        -3.179473735564876E-009
   101.638125000000        -2.784669582359768E-009
   101.851875000000        -2.382629611475219E-009
   102.065625000000        -1.987611265975406E-009
   102.279375000000        -1.613352036688911E-009
   102.493125000000        -1.272392603010454E-009
   102.706875000000        -9.754853344122552E-010
   102.920625000000        -7.311114313696748E-010
   103.134375000000        -5.451563907409742E-010
   103.348125000000        -4.207286276493373E-010
   103.561875000000        -3.581451368119069E-010
   103.775625000000        -3.550502688283815E-010
   103.989375000000        -4.066691160314410E-010
   104.203125000000        -5.061512795762702E-010
   104.416875000000        -6.449977552722210E-010
   104.630625000000        -8.135244225849458E-010
   104.844375000000        -1.001370073686911E-009
   105.058125000000        -1.198001563471333E-009
   105.271875000000        -1.393223106350612E-009
   105.485625000000        -1.577649048177890E-009
   105.699375000000        -1.743146844564807E-009
   105.913125000000        -1.883200992799130E-009
   106.126875000000        -1.993199069159055E-009
   106.340625000000        -2.070606146754538E-009
   106.554375000000        -2.115000987713497E-009
   106.768125000000        -2.127983794431942E-009
   106.981875000000        -2.112942066718790E-009
   107.195625000000        -2.074680713319022E-009
   107.409375000000        -2.018965699775941E-009
   107.623125000000        -1.952007807292535E-009
   107.836875000000        -1.879917660163824E-009
   108.050625000000        -1.808230771321415E-009
   108.264375000000        -1.741486338633617E-009
   108.478125000000        -1.682949356425482E-009
   108.691875000000        -1.634472096693423E-009
   108.905625000000        -1.596496360001919E-009
   109.119375000000        -1.568214094762500E-009
   109.333125000000        -1.547811970143177E-009
   109.546875000000        -1.532811674070213E-009
   109.760625000000        -1.520425322566569E-009
   109.974375000000        -1.507910091301540E-009
   110.188125000000        -1.492878957106603E-009
   110.401875000000        -1.473516859165905E-009
   110.615625000000        -1.448751773230945E-009
   110.829375000000        -1.418302652778942E-009
   111.043125000000        -1.382667944884364E-009
   111.256875000000        -1.343040737617319E-009
   111.470625000000        -1.301174012860298E-009
   111.684375000000        -1.259209714964782E-009
   111.898125000000        -1.219486768575352E-009
   112.111875000000        -1.184351113793085E-009
   112.325625000000        -1.155948386597179E-009
   112.539375000000        -1.136048483828174E-009
   112.753125000000        -1.125866391964432E-009
   112.966875000000        -1.125938546999559E-009
   113.180625000000        -1.136020074269120E-009
   113.394375000000        -1.155048896977449E-009
   113.608125000000        -1.181172859095336E-009
   113.821875000000        -1.211853921880031E-009
   114.035625000000        -1.244046534078012E-009
   114.249375000000        -1.274451605950459E-009
   114.463125000000        -1.299820173570412E-009
   114.676875000000        -1.317292788947443E-009
   114.890625000000        -1.324732714591895E-009
   115.104375000000        -1.321020356254885E-009
   115.318125000000        -1.306274166577218E-009
   115.531875000000        -1.281963060071263E-009
   115.745625000000        -1.250891602613473E-009
   115.959375000000        -1.217054760140977E-009
   116.173125000000        -1.185349605151303E-009
   116.386875000000        -1.161197161097801E-009
   116.600625000000        -1.150082955857417E-009
   116.814375000000        -1.157064008825202E-009
   117.028125000000        -1.186308259210752E-009
   117.241875000000        -1.240697714842605E-009
   117.455625000000        -1.321523342698638E-009
   117.669375000000        -1.428337110578096E-009
   117.883125000000        -1.558936570507734E-009
   118.096875000000        -1.709491018147077E-009
   118.310625000000        -1.874809884897726E-009
   118.524375000000        -2.048694119970510E-009
   118.738125000000        -2.224348951844526E-009
   118.951875000000        -2.394818441970215E-009
   119.165625000000        -2.553387131976277E-009
   119.379375000000        -2.693929613351394E-009
   119.593125000000        -2.811178941216765E-009
   119.806875000000        -2.900901973226970E-009
   120.020625000000        -2.959990413015837E-009
   120.234375000000        -2.986462514839481E-009
   120.448125000000        -2.979417800324597E-009
   120.661875000000        -2.938952817038415E-009
   120.875625000000        -2.866074576272092E-009
   121.089375000000        -2.762599227416683E-009
   121.303125000000        -2.631102451524908E-009
   121.516875000000        -2.474865444561419E-009
   121.730625000000        -2.297855377077548E-009
   121.944375000000        -2.104690046697186E-009
   122.158125000000        -1.900610808820242E-009
   122.371875000000        -1.691408695950210E-009
   122.585625000000        -1.483313940860399E-009
   122.799375000000        -1.282834453448461E-009
   123.013125000000        -1.096534578548904E-009
   123.226875000000        -9.307748082550108E-010
   123.440625000000        -7.914273560527267E-010
   123.654375000000        -6.835633333987338E-010
   123.868125000000        -6.111739111059354E-010