  -1.60312500000000         1.328255656427079E-023
  -1.38937500000000        -6.106125165532527E-017
  -1.17562500000000        -4.462360820143459E-016
 -0.961875000000000        -2.213105594189472E-015
 -0.748125000000000        -8.821947042654677E-015
 -0.534375000000000        -2.959327793510055E-014
 -0.320625000000000        -8.537014690218608E-014
 -0.106875000000000        -2.153213675884430E-013
  0.106875000000000        -4.822457491066565E-013
  0.320625000000000        -9.739459081257958E-013
  0.534375000000000        -1.799945099592641E-012
  0.748125000000000        -3.083980902536629E-012
  0.961875000000000        -4.952523798933150E-012
   1.17562500000000        -7.518377687554794E-012
   1.38937500000000        -1.085799872088357E-011
   1.60312500000000        -1.498733382041520E-011
   1.81687500000000        -1.983726262478630E-011
   2.03062500000000        -2.523429859826555E-011
   2.24437500000000        -3.089538708641826E-011
   2.45812500000000        -3.643229152624453E-011
   2.67187500000000        -4.137684625240197E-011
   2.88562500000000        -4.521555478379678E-011
   3.09937500000000        -4.744465658745908E-011
   3.31312500000000        -4.762284063572751E-011
   3.52687500000000        -4.543215714404343E-011
   3.74062500000000        -4.072167294667171E-011
   3.95437500000000        -3.354309958635372E-011
   4.16812500000000        -2.415083601204319E-011
   4.38187500000000        -1.298587940543965E-011
   4.59562500000000        -6.356702952880194E-013
   4.80937500000000         1.224076707123284E-011
   5.02312500000000         2.498067955485095E-011
   5.23687500000000         3.699882230999279E-011
   5.45062500000000         4.784664551622910E-011
   5.66437500000000         5.724954024531689E-011
   5.87812500000000         6.511848117183374E-011
   6.09187500000000         7.151855847222434E-011
   6.30562500000000         7.661837852431887E-011
   6.51937500000000         8.062221439143748E-011
   6.73312500000000         8.367922388755110E-011
   6.94687500000000         8.582982117441752E-011
   7.16062500000000         8.695075763370973E-011
   7.37437500000000         8.675941700551793E-011
   7.58812500000000         8.483578843103916E-011
   7.80187500000000         8.069171775903676E-011
   8.01562500000000         7.386361610986638E-011
   8.22937500000000         6.401180155799559E-011
   8.44312500000000         5.100858078730593E-011
   8.65687500000000         3.499913493110712E-011
   8.87062500000000         1.642296408179971E-011
   9.08437500000000        -4.022067246003295E-012
   9.29812500000000        -2.544752856673639E-011
   9.51187500000000        -4.688958209483629E-011
   9.72562500000000        -6.743133062345745E-011
   9.93937500000000        -8.631916660490679E-011
   10.1531250000000        -1.030580584629990E-010
   10.3668750000000        -1.174558374245810E-010
   10.5806250000000        -1.296100525675675E-010
   10.7943750000000        -1.398548268007452E-010
   11.0081250000000        -1.486622288553996E-010
   11.2218750000000        -1.565195455610869E-010
   11.4356250000000        -1.638189035068244E-010
   11.6493750000000        -1.707707608509820E-010
   11.8631250000000        -1.773698200129794E-010
   12.0768750000000        -1.834085633429572E-010
   12.2906250000000        -1.885558530519762E-010
   12.5043750000000        -1.924682556438129E-010
   12.7181250000000        -1.949187720400204E-010
   12.9318750000000        -1.959221740901215E-010
   13.1456250000000        -1.958154414421190E-010
   13.3593750000000        -1.952843092153820E-010
   13.5731250000000        -1.953172888808162E-010
   13.7868750000000        -1.970960577150746E-010
   14.0006250000000        -2.018312711486188E-010
   14.2143750000000        -2.105777073082698E-010
   14.4281250000000        -2.240540487509023E-010
   14.6418750000000        -2.424981279450629E-010
   14.8556250000000        -2.655982735358392E-010
   15.0693750000000        -2.924930520387067E-010
   15.2831250000000        -3.218657277795117E-010
   15.4968750000000        -3.520926070403940E-010
   15.7106250000000        -3.814539192502718E-010
   15.9243750000000        -4.083361553631906E-010
   16.1381250000000        -4.314242970630422E-010
   16.3518750000000        -4.498394355028760E-010
   16.5656250000000        -4.631984669000968E-010
   16.7793750000000        -4.715982173896783E-010
   16.9931250000000        -4.755377091635321E-010
   17.2068750000000        -4.757764035199681E-010
   17.4206250000000        -4.731724054881532E-010
   17.6343750000000        -4.685409921252411E-010
   17.8481250000000        -4.625322898163514E-010
   18.0618750000000        -4.555697258644636E-010
   18.2756250000000        -4.478464146890161E-010
   18.4893750000000        -4.393872429024996E-010
   18.7031250000000        -4.301311953988482E-010
   18.9168750000000        -4.200545649895993E-010
   19.1306250000000        -4.092668776347828E-010
   19.3443750000000        -3.980845060071581E-010
   19.5581250000000        -3.870622519192133E-010
   19.7718750000000        -3.769593439496733E-010
   19.9856250000000        -3.686737563133415E-010
   20.1993750000000        -3.631305863828785E-010
   20.4131250000000        -3.611585630851821E-010
   20.6268750000000        -3.633783541757524E-010
   20.8406250000000        -3.701130993207590E-010
   21.0543750000000        -3.813410849016966E-010
   21.2681250000000        -3.966960382816994E-010
   21.4818750000000        -4.155135572206458E-010
   21.6956250000000        -4.369110855944259E-010
   21.9093750000000        -4.598894949693575E-010
   22.1231250000000        -4.834411418769007E-010
   22.3368750000000        -5.066479337514960E-010
   22.5506250000000        -5.287507541908210E-010
   22.7643750000000        -5.491969323254920E-010
   22.9781250000000        -5.676544708291636E-010
   23.1918750000000        -5.840016491620213E-010
   23.4056250000000        -5.982944927072540E-010
   23.6193750000000        -6.107304489737280E-010
   23.8331250000000        -6.216015758390925E-010
   24.0468750000000        -6.312574540411076E-010
   24.2606250000000        -6.400733665989406E-010
   24.4743750000000        -6.484266772685547E-010
   24.6881250000000        -6.566820372879707E-010
   24.9018750000000        -6.651815128246820E-010
   25.1156250000000        -6.742335770634777E-010
   25.3293750000000        -6.841174661915646E-010
   25.5431250000000        -6.950732154644630E-010
   25.7568750000000        -7.073045932823930E-010
   25.9706250000000        -7.209821836317042E-010
   26.1843750000000        -7.362497463898993E-010
   26.3981250000000        -7.532203291722662E-010
   26.6118750000000        -7.719946255899269E-010
   26.8256250000000        -7.926583118784269E-010
   27.0393750000000        -8.152715307859949E-010
   27.2531250000000        -8.398679881842267E-010
   27.4668750000000        -8.664288324727205E-010
   27.6806250000000        -8.948582672974286E-010
   27.8943750000000        -9.249563629208412E-010
   28.1081250000000        -9.563979063158915E-010
   28.3218750000000        -9.887203175046972E-010
   28.5356250000000        -1.021326326740162E-009
   28.7493750000000        -1.053515160459620E-009
   28.9631250000000        -1.084529983745428E-009
   29.1768750000000        -1.113619482608979E-009
   29.3906250000000        -1.140116501043176E-009
   29.6043750000000        -1.163508723898230E-009
   29.8181250000000        -1.183504515550133E-009
   30.0318750000000        -1.200064849062204E-009
   30.2456250000000        -1.213416909157033E-009
   30.4593750000000        -1.224021773589701E-009
   30.6731250000000        -1.232526384196727E-009
   30.8868750000000        -1.239676479436131E-009
   31.1006250000000        -1.246226003436124E-009
   31.3143750000000        -1.252851430539818E-009
   31.5281250000000        -1.260072888225869E-009
   31.7418750000000        -1.268210933514613E-009
   31.9556250000000        -1.277367366625337E-009
   32.1693750000000        -1.287447420491655E-009
   32.3831250000000        -1.298203062380621E-009
   32.5968750000000        -1.309298862771647E-009
   32.8106250000000        -1.320386639959801E-009
   33.0243750000000        -1.331169646318428E-009
   33.2381250000000        -1.341449092792869E-009
   33.4518750000000        -1.351152428574374E-009
   33.6656250000000        -1.360325905652230E-009
   33.8793750000000        -1.369109583932565E-009
   34.0931250000000        -1.377684389315698E-009
   34.3068750000000        -1.386221585711949E-009
   34.5206250000000        -1.394830967445662E-009
   34.7343750000000        -1.403523977422994E-009
   34.9481250000000        -1.412196189484205E-009
   35.1618750000000        -1.420645881493982E-009
   35.3756250000000        -1.428603905872369E-009
   35.5893750000000        -1.435799460773598E-009
   35.8031250000000        -1.442023113355236E-009
   36.0168750000000        -1.447199485623343E-009
   36.2306250000000        -1.451444310730707E-009
   36.4443750000000        -1.455089988056733E-009
   36.6581250000000        -1.458695498123609E-009
   36.8718750000000        -1.463006824461710E-009
   37.0856250000000        -1.468896269118914E-009
   37.2993750000000        -1.477262653368078E-009
   37.5131250000000        -1.488929580533227E-009
   37.7268750000000        -1.504534439961123E-009
   37.9406250000000        -1.524433812750777E-009
   38.1543750000000        -1.548634296351944E-009
   38.3681250000000        -1.576764525689688E-009
   38.5818750000000        -1.608095125498517E-009
   38.7956250000000        -1.641592154490882E-009
   39.0093750000000        -1.676023135237320E-009
   39.2231250000000        -1.710085798378777E-009
   39.4368750000000        -1.742545379383334E-009
   39.6506250000000        -1.772370863865577E-009
   39.8643750000000        -1.798839934176747E-009
   40.0781250000000        -1.821622200110677E-009
   40.2918750000000        -1.840795969978149E-009
   40.5056250000000        -1.856823544604158E-009
   40.7193750000000        -1.870486663803187E-009
   40.9331250000000        -1.882781366786568E-009
   41.1468750000000        -1.894791354610494E-009
   41.3606250000000        -1.907566821891589E-009
   41.5743750000000        -1.922022804636520E-009
   41.7881250000000        -1.938855854079398E-009
   42.0018750000000        -1.958515693022649E-009
   42.2156250000000        -1.981195255271689E-009
   42.4293750000000        -2.006879715568678E-009
   42.6431250000000        -2.035395030809105E-009
   42.8568750000000        -2.066475255105425E-009
   43.0706250000000        -2.099825876956499E-009
   43.2843750000000        -2.135159733253289E-009
   43.4981250000000        -2.172210250853767E-009
   43.7118750000000        -2.210717409485227E-009
   43.9256250000000        -2.250394826834171E-009
   44.1393750000000        -2.290878264603258E-009
   44.3531250000000        -2.331682392776899E-009
   44.5668750000000        -2.372176871567438E-009
   44.7806250000000        -2.411578907609518E-009
   44.9943750000000        -2.448990726774486E-009
   45.2081250000000        -2.483461018168716E-009
   45.4218750000000        -2.514077107106204E-009
   45.6356250000000        -2.540056201501014E-009
   45.8493750000000        -2.560850397065309E-009
   46.0631250000000        -2.576210657582082E-009
   46.2768750000000        -2.586227859874398E-009
   46.4906250000000        -2.591331765545281E-009
   46.7043750000000        -2.592243067919971E-009
   46.9181250000000        -2.589891782541205E-009
   47.1318750000000        -2.585319053105516E-009
   47.3456250000000        -2.579565539484864E-009
   47.5593750000000        -2.573581159738708E-009
   47.7731250000000        -2.568149732036199E-009
   47.9868750000000        -2.563858560167326E-009
   48.2006250000000        -2.561104801620653E-009
   48.4143750000000        -2.560130291650197E-009
   48.6281250000000        -2.561086542162733E-009
   48.8418750000000        -2.564097978238595E-009
   49.0556250000000        -2.569332451040289E-009
   49.2693750000000        -2.577030412051719E-009
   49.4831250000000        -2.587524111371493E-009
   49.6968750000000        -2.601207127794411E-009
   49.9106250000000        -2.618485501648621E-009
   50.1243750000000        -2.639698976925851E-009
   50.3381250000000        -2.665046929315806E-009
   50.5518750000000        -2.694518671870708E-009
   50.7656250000000        -2.727844512395941E-009
   50.9793750000000        -2.764486189077710E-009
   51.1931250000000        -2.803662913477762E-009
   51.4068750000000        -2.844413376896712E-009
   51.6206250000000        -2.885687182602223E-009
   51.8343750000000        -2.926443854208755E-009
   52.0481250000000        -2.965757150465985E-009
   52.2618750000000        -3.002900959476168E-009
   52.4756250000000        -3.037404112886265E-009
   52.6893750000000        -3.069067439325073E-009
   52.9031250000000        -3.097948593074891E-009
   53.1168750000000        -3.124307532044597E-009
   53.3306250000000        -3.148531313375947E-009
   53.5443750000000        -3.171059084189363E-009
   53.7581250000000        -3.192290713973248E-009
   53.9718750000000        -3.212540632600959E-009
   54.1856250000000        -3.232004633371757E-009
   54.3993750000000        -3.250759750586924E-009
   54.6131250000000        -3.268799669078461E-009
   54.8268750000000        -3.286081759400274E-009
   55.0406250000000        -3.302599846631825E-009
   55.2543750000000        -3.318431596044291E-009
   55.4681250000000        -3.333786540815757E-009
   55.6818750000000        -3.349011093037325E-009
   55.8956250000000        -3.364570126979167E-009
   56.1093750000000        -3.380986805888569E-009
   56.3231250000000        -3.398772502541417E-009
   56.5368750000000        -3.418328007912840E-009
   56.7506250000000        -3.439860694962636E-009
   56.9643750000000        -3.463319217969439E-009
   57.1781250000000        -3.488362188904603E-009
   57.3918750000000        -3.514365121496440E-009
   57.6056250000000        -3.540473592536212E-009
   57.8193750000000        -3.565688705572631E-009
   58.0331250000000        -3.588982542099611E-009
   58.2468750000000        -3.609412111440604E-009
   58.4606250000000        -3.626227252670888E-009
   58.6743750000000        -3.638949466394943E-009
   58.8881250000000        -3.647417664377444E-009
   59.1018750000000        -3.651786407896116E-009
   59.3156250000000        -3.652494466791918E-009
   59.5293750000000        -3.650204818407252E-009
   59.7431250000000        -3.645727629812898E-009
   59.9568750000000        -3.639961634863930E-009
   60.1706250000000        -3.633841074217864E-009
   60.3843750000000        -3.628318598825476E-009
   60.5981250000000        -3.624372284617327E-009
   60.8118750000000        -3.623030087698036E-009
   61.0256250000000        -3.625417473784675E-009
   61.2393750000000        -3.632767692239039E-009
   61.4531250000000        -3.646438343283885E-009
   61.6668750000000        -3.667854939413294E-009
   61.8806250000000        -3.698438320965697E-009
   62.0943750000000        -3.739468022800144E-009
   62.3081250000000        -3.791927858180415E-009
   62.5218750000000        -3.856341579034569E-009
   62.7356250000000        -3.932626752773791E-009
   62.9493750000000        -4.019984026859340E-009
   63.1631250000000        -4.116856360208264E-009
   63.3768750000000        -4.220953830846463E-009
   63.5906250000000        -4.329356989377335E-009
   63.8043750000000        -4.438674662326071E-009
   64.0181250000000        -4.545249064668900E-009
   64.2318750000000        -4.645377478250938E-009
   64.4456250000000        -4.735522801479958E-009
   64.6593750000000        -4.812496179276234E-009
   64.8731250000000        -4.873599634081279E-009
   65.0868750000000        -4.916716218902666E-009
   65.3006250000000        -4.940367074967636E-009
   65.5143750000000        -4.943732921229185E-009
   65.7281250000000        -4.926670331188837E-009
   65.9418750000000        -4.889717933669853E-009
   66.1556250000000        -4.834122461416525E-009
   66.3693750000000        -4.761861796127427E-009
   66.5831250000000        -4.675661454147274E-009
   66.7968750000000        -4.579000494527358E-009
   67.0106250000000        -4.476059495180755E-009
   67.2243750000000        -4.371613965329613E-009
   67.4381250000000        -4.270852056974319E-009
   67.6518750000000        -4.179117352605813E-009
   67.8656250000000        -4.101593762486514E-009
   68.0793750000000        -4.042949345365868E-009
   68.2931250000000        -4.007006800613686E-009
   68.5068750000000        -3.996438556212753E-009
   68.7206250000000        -4.012562363845948E-009
   68.9343750000000        -4.055254986809675E-009
   69.1481250000000        -4.122984734882659E-009
   69.3618750000000        -4.212981708122883E-009
   69.5756250000000        -4.321509159063188E-009
   69.7893750000000        -4.444186548204250E-009
   70.0031250000000        -4.576358485621181E-009
   70.2168750000000        -4.713418663811425E-009
   70.4306250000000        -4.851081716073012E-009
   70.6443750000000        -4.985571415410964E-009
   70.8581250000000        -5.113709051789854E-009
   71.0718750000000        -5.232923954766432E-009
   71.2856250000000        -5.341202576944208E-009
   71.4993750000000        -5.437011005580531E-009
   71.7131250000000        -5.519216828331203E-009
   71.9268750000000        -5.587050116520671E-009
   72.1406250000000        -5.640100653227202E-009
   72.3543750000000        -5.678356552119165E-009
   72.5681250000000        -5.702279980118996E-009
   72.7818750000000        -5.712869239123887E-009
   72.9956250000000        -5.711704355920402E-009
   73.2093750000000        -5.700932519709514E-009
   73.4231250000000        -5.683167218992111E-009
   73.6368750000000        -5.661312336311259E-009
   73.8506250000000        -5.638311004687345E-009
   74.0643750000000        -5.616835186884040E-009
   74.2781250000000        -5.598971360709614E-009
   74.4918750000000        -5.585922834234429E-009
   74.7056250000000        -5.577772891955407E-009
   74.9193750000000        -5.573343336129406E-009
   75.1331250000000        -5.570146460787688E-009
   75.3468750000000        -5.564463084475813E-009
   75.5606250000000        -5.551482928369378E-009
   75.7743750000000        -5.525546033394485E-009
   75.9881250000000        -5.480391308468866E-009
   76.2018750000000        -5.409437645795050E-009
   76.4156250000000        -5.306041353480499E-009
   76.6293750000000        -5.163723184638095E-009
   76.8431250000000        -4.976381159559286E-009
   77.0568750000000        -4.738463046404877E-009
   77.2706250000000        -4.445143853024438E-009
   77.4843750000000        -4.092499910930940E-009
   77.6981250000000        -3.677701357656577E-009
   77.9118750000000        -3.199226475402835E-009
   78.1256250000000        -2.657085052903765E-009
   78.3393750000000        -2.053035111332123E-009
   78.5531250000000        -1.390780060909446E-009
   78.7668750000000        -6.760953894361307E-010
   78.9806250000000         8.312084489408051E-011
   79.1943750000000         8.769034527194468E-010
   79.4081250000000         1.693408914588610E-009
   79.6218750000000         2.519198438250283E-009
   79.8356250000000         3.339651959345213E-009
   80.0493750000000         4.139457563144910E-009
   80.2631250000000         4.903134030599754E-009
   80.4768750000000         5.615609483761095E-009
   80.6906250000000         6.262739380041842E-009
   80.9043750000000         6.831814014811933E-009
   81.1181250000000         7.311974349745869E-009
   81.3318750000000         7.694552316924385E-009
   81.5456250000000         7.973320514591449E-009
   81.7593750000000         8.144644850805935E-009
   81.9731250000000         8.207551005918946E-009
   82.1868750000000         8.163700935510554E-009
   82.4006250000000         8.017295863905226E-009
   82.6143750000000         7.774915019135276E-009
   82.8281250000000         7.445257859275767E-009
   83.0418750000000         7.038863492149698E-009
   83.2556250000000         6.567748176381456E-009
   83.4693750000000         6.045010049253277E-009
   83.6831250000000         5.484394763594497E-009
   83.8968750000000         4.899849013446338E-009
   84.1106250000000         4.305076717386282E-009
   84.3243750000000         3.713106114510539E-009
   84.5381250000000         3.135903697391076E-009
   84.7518750000000         2.584044781994094E-009
   84.9656250000000         2.066443382600264E-009
   85.1793750000000         1.590173353433715E-009
   85.3931250000000         1.160361006533825E-009
   85.6068750000000         7.801624419638199E-010
   85.8206250000000         4.508075009473454E-010
   86.0343750000000         1.717159544208362E-010
   86.2481250000000        -5.934092710751042E-011
   86.4618750000000        -2.460343124614610E-010
   86.6756250000000        -3.932476743884670E-010
   86.8893750000000        -5.068208450743998E-010
   87.1031250000000        -5.932908593213375E-010
   87.3168750000000        -6.596220254953586E-010
   87.5306250000000        -7.129421550395356E-010
   87.7443750000000        -7.602818098663470E-010
   87.9581250000000        -8.083250448749286E-010
   88.1718750000000        -8.631712895695067E-010
   88.3856250000000        -9.301118275591911E-010
   88.5993750000000        -1.013443398479479E-009
   88.8131250000000        -1.116300403847888E-009
   89.0268750000000        -1.240532500425001E-009
   89.2406250000000        -1.386627877520434E-009
   89.4543750000000        -1.553693472902887E-009
   89.6681250000000        -1.739500851904876E-009
   89.8818750000000        -1.940588295762865E-009
   90.0956250000000        -2.152440094019545E-009
   90.3093750000000        -2.369728950663850E-009
   90.5231250000000        -2.586599648955195E-009
   90.7368750000000        -2.797003530890694E-009
   90.9506250000000        -2.995060728942636E-009
   91.1643750000000        -3.175394830659064E-009
   91.3781250000000        -3.333456708941626E-009
   91.5918750000000        -3.465802981968723E-009
   91.8056250000000        -3.570272216640376E-009
   92.0193750000000        -3.646090027052101E-009
   92.2331250000000        -3.693870233154501E-009
   92.4468750000000        -3.715502733072352E-009
   92.6606250000000        -3.713953927120621E-009
   92.8743750000000        -3.692980695716458E-009
   93.0881250000000        -3.656797870645477E-009
   93.3018750000000        -3.609708320138721E-009
   93.5156250000000        -3.555749344156685E-009
   93.7293750000000        -3.498365998717200E-009
   93.9431250000000        -3.440151396911035E-009
   94.1568750000000        -3.382668761092231E-009
   94.3706250000000        -3.326381138218626E-009
   94.5843750000000        -3.270663191173222E-009
   94.7981250000000        -3.213930115568361E-009
   95.0118750000000        -3.153840851810422E-009
   95.2256250000000        -3.087563465648209E-009
   95.4393750000000        -3.012081648374267E-009
   95.6531250000000        -2.924508894875954E-009
   95.8668750000000        -2.822385952946359E-009
   96.0806250000000        -2.703931517338308E-009
   96.2943750000000        -2.568239688341891E-009
   96.5081250000000        -2.415387918682322E-009
   96.7218750000000        -2.246476220284938E-009
   96.9356250000000        -2.063592688906106E-009
   97.1493750000000        -1.869700150216061E-009
   97.3631250000000        -1.668494587457513E-009
   97.5768750000000        -1.464214863320516E-009
   97.7906250000000        -1.261455689234185E-009
   98.0043750000000        -1.064991752747371E-009
   98.2181250000000        -8.796054834154752E-010
   98.4318750000000        -7.099620533967507E-010
   98.6456250000000        -5.604943044465692E-010
   98.8593750000000        -4.353196939872628E-010
   99.0731250000000        -3.381473659237153E-010
   99.2868750000000        -2.722068047386047E-010
   99.5006250000000        -2.401453021946204E-010
   99.7143750000000        -2.439257843470732E-010
   99.9281250000000        -2.846991352788015E-010
   100.141875000000        -3.626872669735932E-010
   100.355625000000        -4.770670182321730E-010
   100.569375000000        -6.258913138511718E-010
   100.783125000000        -8.060695818958442E-010
   100.996875000000        -1.013394629455090E-009
   101.210625000000        -1.242666702617348E-009
   101.424375000000        -1.487875270539834E-009
   101.638125000000        -1.742454180247478E-009
   101.851875000000        -1.999565535329821E-009
   102.065625000000        -2.252414376958069E-009
   102.279375000000        -2.494538944792653E-009
   102.493125000000        -2.720068310400373E-009
   102.706875000000        -2.923921498198810E-009
   102.920625000000        -3.101942296988309E-009
   103.134375000000        -3.250964576160340E-009
   103.348125000000        -3.368827959217875E-009
   103.561875000000        -3.454351867722469E-009
   103.775625000000        -3.507294313986288E-009
   103.989375000000        -3.528307490002946E-009
   104.203125000000        -3.518895765401773E-009
   104.416875000000        -3.481387784501767E-009
   104.630625000000        -3.418911361708045E-009
   104.844375000000        -3.335337587622904E-009
   105.058125000000        -3.235211242330574E-009
   105.271875000000        -3.123604881325471E-009
   105.485625000000        -3.005929411810498E-009
   105.699375000000        -2.887665169806018E-009
   105.913125000000        -2.774066417328413E-009
   106.126875000000        -2.669824172105872E-009
   106.340625000000        -2.578759008063088E-009
   106.554375000000        -2.503565478303066E-009
   106.768125000000        -2.445656852308465E-009
   106.981875000000        -2.405124319266538E-009
   107.195625000000        -2.380844891859854E-009
   107.409375000000        -2.370704306882411E-009
   107.623125000000        -2.371918412869868E-009
   107.836875000000        -2.381436123704057E-009
   108.050625000000        -2.396313234546499E-009
   108.264375000000        -2.414076127058056E-009
   108.478125000000        -2.432961839333205E-009
   108.691875000000        -2.452052875055238E-009
   108.905625000000        -2.471267514505475E-009
   109.119375000000        -2.491223194374268E-009
   109.333125000000        -2.513008948437450E-009
   109.546875000000        -2.537887979511930E-009
   109.760625000000        -2.567013609316122E-009
   109.974375000000        -2.601170512765193E-009
   110.188125000000        -2.640598883466623E-009
   110.401875000000        -2.684938381579538E-009
   110.615625000000        -2.733254318651247E-009
   110.829375000000        -2.784178006689955E-009
   111.043125000000        -2.836094474431942E-009
   111.256875000000        -2.887376864440123E-009
   111.470625000000        -2.936598040488061E-009
   111.684375000000        -2.982704743964606E-009
   111.898125000000        -3.025125318909323E-009
   112.111875000000        -3.063800928446610E-009
   112.325625000000        -3.099152639710092E-009
   112.539375000000        -3.131977160550835E-009
   112.753125000000        -3.163333332817208E-009
   112.966875000000        -3.194389378019593E-009
   113.180625000000        -3.226298877984612E-009
   113.394375000000        -3.260097273755365E-009
   113.608125000000        -3.296608424595329E-009
   113.821875000000        -3.336396240391432E-009
   114.035625000000        -3.379711346895176E-009
   114.249375000000        -3.426448921974302E-009
   114.463125000000        -3.476102471517957E-009
   114.676875000000        -3.527707556184042E-009
   114.890625000000        -3.579797852437678E-009
   115.104375000000        -3.630356940257934E-009
   115.318125000000        -3.676842019460601E-009
   115.531875000000        -3.716221884440040E-009
   115.745625000000        -3.745140424285349E-009
   115.959375000000        -3.760122481411392E-009
   116.173125000000        -3.757888519506534E-009
   116.386875000000        -3.735715883679902E-009
   116.600625000000        -3.691823364116688E-009
   116.814375000000        -3.625735960728445E-009
   117.028125000000        -3.538575146060497E-009
   117.241875000000        -3.433224931725085E-009
   117.455625000000        -3.314342821713666E-009
   117.669375000000        -3.188182738578887E-009
   117.883125000000        -3.062239822526683E-009
   118.096875000000        -2.944741092336172E-009
   118.310625000000        -2.844007509622346E-009
   118.524375000000        -2.767770993044616E-009
   118.738125000000        -2.722498376167294E-009
   118.951875000000        -2.712789439893293E-009
   119.165625000000        -2.740913317305612E-009
   119.379375000000        -2.806529905502547E-009
   119.593125000000        -2.906605718329478E-009
   119.806875000000        -3.035550475364675E-009
   120.020625000000        -3.185531691873594E-009
   120.234375000000        -3.346957254855964E-009
   120.448125000000        -3.509068554000876E-009
   120.661875000000        -3.660597496814776E-009
   120.875625000000        -3.790448013391915E-009
   121.089375000000        -3.888356895037022E-009
   121.303125000000        -3.945492533371953E-009
   121.516875000000        -3.954983893653469E-009
   121.730625000000        -3.912334143683901E-009
   121.944375000000        -3.815745705568500E-009
   122.158125000000        -3.666302200006802E-009
   122.371875000000        -3.468028770440490E-009
   122.585625000000        -3.227818978723933E-009
   122.799375000000        -2.955201060256972E-009
   123.013125000000        -2.661976136100690E-009
   123.226875000000        -2.361704367348816E-009
   123.440625000000        -2.069065016659011E-009
   123.654375000000        -1.799133750605575E-009
   123.868125000000        -1.566585802751931E-009