  -1.60312500000000         1.185299833303731E-023
  -1.38937500000000         5.036514693631097E-026
  -1.17562500000000         2.946786699823663E-022
 -0.961875000000000         2.812181077459662E-021
 -0.748125000000000         1.594809868236084E-020
 -0.534375000000000         6.969726352660462E-020
 -0.320625000000000         2.530027110879618E-019
 -0.106875000000000         7.859942569212745E-019
  0.106875000000000         2.125791040753888E-018
  0.320625000000000         5.058160877945700E-018
  0.534375000000000         1.067250457784930E-017
  0.748125000000000         2.007303019702630E-017
  0.961875000000000         3.369401336483436E-017
   1.17562500000000         5.015288249968648E-017
   1.38937500000000         6.474157608536934E-017
   1.60312500000000         6.771310753682388E-017
   1.81687500000000         4.281379095037746E-017
   2.03062500000000        -3.360189902190099E-017
   2.24437500000000        -1.924599865301021E-016
   2.45812500000000        -4.701618472595926E-016
   2.67187500000000        -9.050760646086398E-016
   2.88562500000000        -1.531810986445139E-015
   3.09937500000000        -2.373945890956642E-015
   3.31312500000000        -3.435521066739421E-015
   3.52687500000000        -4.692472806499752E-015
   3.74062500000000        -6.086061076856051E-015
   3.95437500000000        -7.519523278802160E-015
   4.16812500000000        -8.859339935718065E-015
   4.38187500000000        -9.942831271123249E-015
   4.59562500000000        -1.059186679549004E-014
   4.80937500000000        -1.063256043925234E-014
   5.02312500000000        -9.919730454029337E-015
   5.23687500000000        -8.363017791667860E-015
   5.45062500000000        -5.951526279425371E-015
   5.66437500000000        -2.773283155459434E-015
   5.87812500000000         9.746099131788360E-016
   6.09187500000000         4.988220930140696E-015
   6.30562500000000         8.872695776706256E-015
   6.51937500000000         1.217086902793357E-014
   6.73312500000000         1.440320129661578E-014
   6.94687500000000         1.511397987707847E-014
   7.16062500000000         1.391852685654560E-014
   7.37437500000000         1.054495690617421E-014
   7.58812500000000         4.864257937573194E-015
   7.80187500000000        -3.096166056579215E-015
   8.01562500000000        -1.315731832934649E-014
   8.22937500000000        -2.501236479129523E-014
   8.44312500000000        -3.826495264204678E-014
   8.65687500000000        -5.247689519241027E-014
   8.87062500000000        -6.721638100670550E-014
   9.08437500000000        -8.209974165024806E-014
   9.29812500000000        -9.681871826654043E-014
   9.51187500000000        -1.111491191810998E-013
   9.72562500000000        -1.249394613036559E-013
   9.93937500000000        -1.380821592374870E-013
   10.1531250000000        -1.504748009435110E-013
   10.3668750000000        -1.619794817993783E-013
   10.5806250000000        -1.723911007667900E-013
   10.7943750000000        -1.814231915781473E-013
   11.0081250000000        -1.887175084884201E-013
   11.2218750000000        -1.938795152679857E-013
   11.4356250000000        -1.965363946732677E-013
   11.6493750000000        -1.964093295764553E-013
   11.8631250000000        -1.933882015841437E-013
   12.0768750000000        -1.875939571124394E-013
   12.2906250000000        -1.794160592570943E-013
   12.5043750000000        -1.695139081248462E-013
   12.7181250000000        -1.587780710770749E-013
   12.9318750000000        -1.482530311404755E-013
   13.1456250000000        -1.390299246619605E-013
   13.3593750000000        -1.321238776559614E-013
   13.5731250000000        -1.283531719828828E-013
   13.7868750000000        -1.282390499753032E-013
   14.0006250000000        -1.319416353374114E-013
   14.2143750000000        -1.392426320746197E-013
   14.4281250000000        -1.495771562098270E-013
   14.6418750000000        -1.621103071417967E-013
   14.8556250000000        -1.758460768318447E-013
   15.0693750000000        -1.897501658313418E-013
   15.2831250000000        -2.028676750010600E-013
   15.4968750000000        -2.144173125793781E-013
   15.7106250000000        -2.238476819711314E-013
   15.9243750000000        -2.308494811046901E-013
   16.1381250000000        -2.353239892763477E-013
   16.3518750000000        -2.373172889260326E-013
   16.5656250000000        -2.369348687793940E-013
   16.7793750000000        -2.342550720077049E-013
   16.9931250000000        -2.292595800814226E-013
   17.2068750000000        -2.217959149951231E-013
   17.4206250000000        -2.115801730275428E-013
   17.6343750000000        -1.982405700034345E-013
   17.8481250000000        -1.813946083646005E-013
   18.0618750000000        -1.607461237796711E-013
   18.2756250000000        -1.361832136054788E-013
   18.4893750000000        -1.078588862456453E-013
   18.7031250000000        -7.623728245331846E-014
   18.9168750000000        -4.209428774308596E-014
   19.1306250000000        -6.468918740153505E-015
   19.3443750000000         2.942971805204343E-014
   19.5581250000000         6.434884555350745E-014
   19.7718750000000         9.713384678272888E-014
   19.9856250000000         1.268667281001937E-013
   20.1993750000000         1.529810005397203E-013
   20.4131250000000         1.753371962735965E-013
   20.6268750000000         1.942481420869201E-013
   20.8406250000000         2.104506056396458E-013
   21.0543750000000         2.250271512593848E-013
   21.2681250000000         2.392886354789113E-013
   21.4818750000000         2.546323343554324E-013
   21.6956250000000         2.723943165083076E-013
   21.9093750000000         2.937139391634148E-013
   22.1231250000000         3.194265563475842E-013
   22.3368750000000         3.499970394637072E-013
   22.5506250000000         3.855005866277224E-013
   22.7643750000000         4.256517369581052E-013
   22.9781250000000         4.698762831557934E-013
   23.1918750000000         5.174158745437734E-013
   23.4056250000000         5.674515634916230E-013
   23.6193750000000         6.192309059222098E-013
   23.8331250000000         6.721832044213441E-013
   24.0468750000000         7.260089099064220E-013
   24.2606250000000         7.807324612589385E-013
   24.4743750000000         8.367109142140354E-013
   24.6881250000000         8.945971364398621E-013
   24.9018750000000         9.552599577707107E-013
   25.1156250000000         1.019667890368935E-012
   25.3293750000000         1.088748200830642E-012
   25.5431250000000         1.163232661921101E-012
   25.7568750000000         1.243506844331400E-012
   25.9706250000000         1.329477441386672E-012
   26.1843750000000         1.420475674372924E-012
   26.3981250000000         1.515211436393186E-012
   26.6118750000000         1.611793838094221E-012
   26.8256250000000         1.707830288224209E-012
   27.0393750000000         1.800612957060512E-012
   27.2531250000000         1.887395175758051E-012
   27.4668750000000         1.965751744403803E-012
   27.6806250000000         2.034003711979515E-012
   27.8943750000000         2.091672249962869E-012
   28.1081250000000         2.139909274409221E-012
   28.3218750000000         2.181835904882735E-012
   28.5356250000000         2.222707290764471E-012
   28.7493750000000         2.269821934890121E-012
   28.9631250000000         2.332101296928886E-012
   29.1768750000000         2.419297278325092E-012
   29.3906250000000         2.540826894928476E-012
   29.6043750000000         2.704299220573526E-012
   29.8181250000000         2.913869990812992E-012
   30.0318750000000         3.168630526124430E-012
   30.2456250000000         3.461297382007941E-012
   30.4593750000000         3.777499962107976E-012
   30.6731250000000         4.095951511963646E-012
   30.8868750000000         4.389729706516915E-012
   31.1006250000000         4.628774429268936E-012
   31.3143750000000         4.783546007896397E-012
   31.5281250000000         4.829584921275805E-012
   31.7418750000000         4.752505364934866E-012
   31.9556250000000         4.552768744068245E-012
   32.1693750000000         4.249457937007142E-012
   32.3831250000000         3.882241659323220E-012
   32.5968750000000         3.510805906631831E-012
   32.8106250000000         3.211249380285853E-012
   33.0243750000000         3.069283098910352E-012
   33.2381250000000         3.170512928372663E-012
   33.4518750000000         3.588567424139775E-012
   33.6656250000000         4.372297897119648E-012
   33.8793750000000         5.533647378701139E-012
   34.0931250000000         7.037990777404693E-012
   34.3068750000000         8.798729977102340E-012
   34.5206250000000         1.067765690299091E-011
   34.7343750000000         1.249207347598899E-011
   34.9481250000000         1.402891613115502E-011
   35.1618750000000         1.506525530077624E-011
   35.3756250000000         1.539362402624326E-011
   35.5893750000000         1.484980077423866E-011
   35.8031250000000         1.334004767067904E-011
   36.0168750000000         1.086449135322537E-011
   36.2306250000000         7.533397782315440E-012
   36.4443750000000         3.573555929357881E-012
   36.6581250000000        -6.771813938483064E-013
   36.8718750000000        -4.788032836113624E-012
   37.0856250000000        -8.265648450543313E-012
   37.2993750000000        -1.059494310463872E-011
   37.5131250000000        -1.128748207006095E-011
   37.7268750000000        -9.933592197207294E-012
   37.9406250000000        -6.253814301323868E-012
   38.1543750000000        -1.451478098317423E-013
   38.3681250000000         8.282254793518018E-012
   38.5818750000000         1.868176928446172E-011
   38.7956250000000         3.046344743513776E-011
   39.0093750000000         4.280586877334201E-011
   39.2231250000000         5.468804177041532E-011
   39.4368750000000         6.494180424178941E-011
   39.6506250000000         7.232426163958338E-011
   39.8643750000000         7.560879846697682E-011
   40.0781250000000         7.369200555987234E-011
   40.2918750000000         6.571236548274042E-011
   40.5056250000000         5.117466707869533E-011
   40.7193750000000         3.007189192922212E-011
   40.9331250000000         2.993873384216358E-012
   41.1468750000000        -2.879033203895147E-011
   41.3606250000000        -6.329125885093015E-011
   41.5743750000000        -9.781468596302076E-011
   41.7881250000000        -1.290488523061600E-010
   42.0018750000000        -1.532347887723545E-010
   42.2156250000000        -1.664255292219928E-010
   42.4293750000000        -1.648314636420813E-010
   42.6431250000000        -1.452381913062028E-010
   42.8568750000000        -1.054707018833502E-010
   43.0706250000000        -4.486480245929773E-011
   43.2843750000000         3.530492754401568E-011
   43.4981250000000         1.314997948159948E-010
   43.7118750000000         2.377566426960102E-010
   43.9256250000000         3.457511565465716E-010
   44.1393750000000         4.451315678884036E-010
   44.3531250000000         5.241489451815255E-010
   44.5668750000000         5.705816654538159E-010
   44.7806250000000         5.729168195367330E-010
   44.9943750000000         5.217131893148839E-010
   45.2081250000000         4.110330635078077E-010
   45.4218750000000         2.397982606754534E-010
   45.6356250000000         1.290429419858376E-011
   45.8493750000000        -2.580797058365461E-010
   46.0631250000000        -5.547852218403534E-010
   46.2768750000000        -8.526192919146748E-010
   46.4906250000000        -1.122112574127749E-009
   46.7043750000000        -1.331040529903670E-009
   46.9181250000000        -1.447232206672599E-009
   47.1318750000000        -1.441890034518390E-009
   47.3456250000000        -1.293156883490540E-009
   47.5593750000000        -9.895938951559845E-010
   47.7731250000000        -5.331848514101068E-010
   47.9868750000000         5.853056515351910E-011
   48.2006250000000         7.515644322927656E-010
   48.4143750000000         1.496126593802601E-009
   48.6281250000000         2.228990665100465E-009
   48.8418750000000         2.877608698236210E-009
   49.0556250000000         3.365824091213651E-009
   49.2693750000000         3.620842733512539E-009
   49.4831250000000         3.580941135691902E-009
   49.6968750000000         3.203237918715906E-009
   49.9106250000000         2.470751689380998E-009
   50.1243750000000         1.397931542664486E-009
   50.3381250000000         3.388891425060487E-011
   50.5518750000000        -1.537312847651015E-009
   50.7656250000000        -3.199744381499077E-009
   50.9793750000000        -4.812223015593271E-009
   51.1931250000000        -6.218270574131114E-009
   51.4068750000000        -7.258878359638781E-009
   51.6206250000000        -7.787195640839263E-009
   51.8343750000000        -7.683959167104329E-009
   52.0481250000000        -6.872265095863223E-009
   52.2618750000000        -5.330182468481003E-009
   52.4756250000000        -3.099741964396378E-009
   52.6893750000000        -2.910165743884142E-010
   52.9031250000000         2.919660324297256E-009
   53.1168750000000         6.297836636095960E-009
   53.3306250000000         9.565386304286816E-009
   53.5443750000000         1.242059523934805E-008
   53.7581250000000         1.456262421462343E-008
   53.9718750000000         1.571854448146871E-008
   54.1856250000000         1.567072256951592E-008
   54.3993750000000         1.428208396326981E-008
   54.6131250000000         1.151675028174334E-008
   54.8268750000000         7.453742846592231E-009
   55.0406250000000         2.291877517297460E-009
   55.2543750000000        -3.655381114545735E-009
   55.4681250000000        -9.975528605217752E-009
   55.6818750000000        -1.618260388292940E-008
   55.8956250000000        -2.175132436078449E-008
   56.1093750000000        -2.615748097956330E-008
   56.3231250000000        -2.892158219050794E-008
   56.5368750000000        -2.965224438915136E-008
   56.7506250000000        -2.808562191723895E-008
   56.9643750000000        -2.411728755265478E-008
   57.1781250000000        -1.782342012888911E-008
   57.3918750000000        -9.468903792491064E-009
   57.6056250000000         4.990628056270965E-010
   57.8193750000000         1.147209180601349E-008
   58.0331250000000         2.271549093361801E-008
   58.2468750000000         3.341476202928313E-008
   58.4606250000000         4.273055458560415E-008
   58.6743750000000         4.985815663589236E-008
   58.8881250000000         5.408717349987176E-008
   59.1018750000000         5.485698167808187E-008
   59.3156250000000         5.180385565648499E-008
   59.5293750000000         4.479631690070814E-008
   59.7431250000000         3.395617958580802E-008
   59.9568750000000         1.966387169378170E-008
   60.1706250000000         2.547780898037188E-009
   60.3843750000000        -1.654150444419208E-008
   60.5981250000000        -3.657022529889557E-008
   60.8118750000000        -5.637119825060180E-008
   61.0256250000000        -7.470129818358162E-008
   61.2393750000000        -9.030358146544048E-008
   61.4531250000000        -1.019711193330042E-007
   61.6668750000000        -1.086099928785470E-007
   61.8806250000000        -1.092994042018241E-007
   62.0943750000000        -1.033473721416682E-007
   62.3081250000000        -9.034089462373578E-008
   62.5218750000000        -7.018967917248040E-008
   62.7356250000000        -4.316250770615255E-008
   62.9493750000000        -9.914996271337112E-009
   63.1631250000000         2.849302708558492E-008
   63.3768750000000         7.059298084639085E-008
   63.5906250000000         1.145189590461435E-007
   63.8043750000000         1.580387754681909E-007
   64.0181250000000         1.986084267179651E-007
   64.2318750000000         2.334534159799795E-007
   64.4456250000000         2.596793666019043E-007
   64.6593750000000         2.744126257745601E-007
   64.8731250000000         2.749691322124663E-007
   65.0868750000000         2.590468126618080E-007
   65.3006250000000         2.249333926731101E-007
   65.5143750000000         1.717180573572800E-007
   65.7281250000000         9.949224360830487E-008
   65.9418750000000         9.522385974412744E-009
   66.1556250000000        -9.562393290874945E-008
   66.3693750000000        -2.120169170172711E-007
   66.5831250000000        -3.343853279545159E-007
   66.7968750000000        -4.562323100077892E-007
   67.0106250000000        -5.700542038765373E-007
   67.2243750000000        -6.676634721651395E-007
   67.4381250000000        -7.406089148657709E-007
   67.6518750000000        -7.806778242555820E-007
   67.8656250000000        -7.804562827307529E-007
   68.0793750000000        -7.339161768397464E-007
   68.2931250000000        -6.369914227054192E-007
   68.5068750000000        -4.881020452462654E-007
   68.7206250000000        -2.885836696460669E-007
   68.9343750000000        -4.298202377712787E-008
   69.1481250000000         2.408226629045033E-007
   69.3618750000000         5.516880822458876E-007
   69.5756250000000         8.754947058266979E-007
   69.7893750000000         1.195645526376712E-006
   70.0031250000000         1.493768752160122E-006
   70.2168750000000         1.750596930062136E-006
   70.4306250000000         1.946982225099786E-006
   70.6443750000000         2.064995730615873E-006
   70.8581250000000         2.089049673749555E-006
   71.0718750000000         2.006975986956717E-006
   71.2856250000000         1.810993468253335E-006
   71.4993750000000         1.498498892012820E-006
   71.7131250000000         1.072624888420746E-006
   71.9268750000000         5.425188027580286E-007
   72.1406250000000        -7.668858887555983E-008
   72.3543750000000        -7.642385931632327E-007
   72.5681250000000        -1.494420088077748E-006
   72.7818750000000        -2.237542249513170E-006
   72.9956250000000        -2.961164321589982E-006
   73.2093750000000        -3.631526893392671E-006
   73.4231250000000        -4.215116855289422E-006
   73.6368750000000        -4.680289696244549E-006
   73.8506250000000        -4.998868536973687E-006
   74.0643750000000        -5.147639459239068E-006
   74.2781250000000        -5.109667193800833E-006
   74.4918750000000        -4.875363710275507E-006
   74.7056250000000        -4.443254127256127E-006
   74.9193750000000        -3.820398871706302E-006
   75.1331250000000        -3.022447289975968E-006
   75.3468750000000        -2.073315026385788E-006
   75.5606250000000        -1.004494530457479E-006
   75.7743750000000         1.459758076057625E-007
   75.9881250000000         1.334843882504936E-006
   76.2018750000000         2.515225136430364E-006
   76.4156250000000         3.638370819953994E-006
   76.6293750000000         4.655554325181069E-006
   76.8431250000000         5.520002671518896E-006
   77.0568750000000         6.188799051263354E-006
   77.2706250000000         6.624683806929129E-006
   77.4843750000000         6.797685058198899E-006
   77.6981250000000         6.686516128221399E-006
   77.9118750000000         6.279684634699963E-006
   78.1256250000000         5.576267326890950E-006
   78.3393750000000         4.586315214789369E-006
   78.5531250000000         3.330865038676060E-006
   78.7668750000000         1.841545483986785E-006
   78.9806250000000         1.597795904840058E-007
   79.1943750000000        -1.664401641507304E-006
   79.4081250000000        -3.573905596592835E-006
   79.6218750000000        -5.506441627137322E-006
   79.8356250000000        -7.396645647908604E-006
   80.0493750000000        -9.178396824157439E-006
   80.2631250000000        -1.078724612495165E-005
   80.4768750000000        -1.216286723388583E-005
   80.6906250000000        -1.325143375591388E-005
   80.9043750000000        -1.400782352897871E-005
   81.1181250000000        -1.439755177894842E-005
   81.3318750000000        -1.439834035349593E-005
   81.5456250000000        -1.400124064285420E-005
   81.7593750000000        -1.321124308654361E-005
   81.9731250000000        -1.204732610358436E-005
   82.1868750000000        -1.054192125158224E-005
   82.4006250000000        -8.739798448979641E-006
   82.6143750000000        -6.696403891297969E-006
   82.8281250000000        -4.475712295118875E-006
   83.0418750000000        -2.147682570852622E-006
   83.2556250000000         2.145698535423351E-007
   83.4693750000000         2.537751809817447E-006
   83.6831250000000         4.751377638371763E-006
   83.8968750000000         6.790611758225851E-006
   84.1106250000000         8.598823507457016E-006
   84.3243750000000         1.012972214021976E-005
   84.5381250000000         1.134896125272693E-005
   84.7518750000000         1.223513074498466E-005
   84.9656250000000         1.278008912783427E-005
   85.1793750000000         1.298862748154860E-005
   85.3931250000000         1.287749622141404E-005
   85.6068750000000         1.247386438232692E-005
   85.8206250000000         1.181331573740202E-005
   86.0343750000000         1.093751423587946E-005
   86.2481250000000         9.891690879013592E-006
   86.4618750000000         8.722113691786029E-006
   86.6756250000000         7.473701019493604E-006
   86.8893750000000         6.187925880733527E-006
   87.1031250000000         4.901136247302133E-006
   87.3168750000000         3.643384380809536E-006
   87.5306250000000         2.437819909576642E-006
   87.7443750000000         1.300658898667655E-006
   87.9581250000000         2.416978289398258E-007
   88.1718750000000        -7.346996292914822E-007
   88.3856250000000        -1.628250777298897E-006
   88.5993750000000        -2.441172145962071E-006
   88.8131250000000        -3.176520057535903E-006
   89.0268750000000        -3.836610889314839E-006
   89.2406250000000        -4.421671182427654E-006
   89.4543750000000        -4.928848383320972E-006
   89.6681250000000        -5.351682830570583E-006
   89.8818750000000        -5.680102749055976E-006
   90.0956250000000        -5.900959351036164E-006
   90.3093750000000        -5.999072052748926E-006
   90.5231250000000        -5.958707953107611E-006
   90.7368750000000        -5.765378745372076E-006
   90.9506250000000        -5.407805519658108E-006
   91.1643750000000        -4.879880291251482E-006
   91.3781250000000        -4.182444602215119E-006
   91.5918750000000        -3.324711275107281E-006
   91.8056250000000        -2.325175358372827E-006
   92.0193750000000        -1.211893399609731E-006
   92.2331250000000        -2.205427074234274E-008
   92.4468750000000         1.199183212010644E-006
   92.6606250000000         2.400554445946445E-006
   92.8743750000000         3.527167399629295E-006
   93.0881250000000         4.523455798992237E-006
   93.3018750000000         5.336424448817951E-006
   93.5156250000000         5.918972734424210E-006
   93.7293750000000         6.233065914026699E-006
   93.9431250000000         6.252523923384683E-006
   94.1568750000000         5.965214580507422E-006
   94.3706250000000         5.374471533712732E-006
   94.5843750000000         4.499605030002896E-006
   94.7981250000000         3.375432462140193E-006
   95.0118750000000         2.050821646827612E-006
   95.2256250000000         5.863082406032338E-007
   95.4393750000000        -9.490853163471771E-007
   95.6531250000000        -2.481643269641092E-006
   95.8668750000000        -3.937129416361423E-006
   96.0806250000000        -5.245074716002772E-006
   96.2943750000000        -6.342901242221818E-006
   96.5081250000000        -7.179609496188710E-006
   96.7218750000000        -7.718780640427839E-006
   96.9356250000000        -7.940687425767943E-006
   97.1493750000000        -7.843364758957686E-006
   97.3631250000000        -7.442559189956391E-006
   97.5768750000000        -6.770551456568586E-006
   97.7906250000000        -5.873922480230660E-006
   98.0043750000000        -4.810405588886730E-006
   98.2181250000000        -3.645031205052305E-006
   98.4318750000000        -2.445820308690830E-006
   98.6456250000000        -1.279316078488057E-006
   98.8593750000000        -2.062567749297260E-007
   99.0731250000000         7.223140025501794E-007
   99.2868750000000         1.468230848993560E-006
   99.5006250000000         2.008461106744809E-006
   99.7143750000000         2.336269623775036E-006
   99.9281250000000         2.461206783244934E-006
   100.141875000000         2.407913853620935E-006
   100.355625000000         2.213822432710813E-006
   100.569375000000         1.925903653665442E-006
   100.783125000000         1.596692464722390E-006
   100.996875000000         1.279867764488489E-006
   101.210625000000         1.025706373216055E-006
   101.424375000000         8.767447585451569E-007
   101.638125000000         8.639754536046569E-007
   101.851875000000         1.003875027721308E-006
   102.065625000000         1.296508658112357E-006
   102.279375000000         1.724885676881286E-006
   102.493125000000         2.255655183680357E-006
   102.706875000000         2.841136329304111E-006
   102.920625000000         3.422580443924764E-006
   103.134375000000         3.934468522776515E-006
   103.348125000000         4.309564434835124E-006
   103.561875000000         4.484377890997291E-006
   103.775625000000         4.404647101269608E-006
   103.989375000000         4.030433240831596E-006
   104.203125000000         3.340429719332041E-006
   104.416875000000         2.335129244010382E-006
   104.630625000000         1.038559139201568E-006
   104.844375000000        -5.016133856579049E-007
   105.058125000000        -2.215694963271656E-006
   105.271875000000        -4.015267442628791E-006
   105.485625000000        -5.798022671049212E-006
   105.699375000000        -7.453859834801535E-006
   105.913125000000        -8.871872960304435E-006
   106.126875000000        -9.947777701339086E-006
   106.340625000000        -1.059127772635227E-005
   106.554375000000        -1.073285648467370E-005
   106.768125000000        -1.032950206703725E-005
   106.981875000000        -9.368930806471712E-006
   107.195625000000        -7.871965985160991E-006
   107.409375000000        -5.892845751905808E-006
   107.623125000000        -3.517371155826781E-006
   107.836875000000        -8.589514839103152E-007
   108.050625000000         1.947250639676072E-006
   108.264375000000         4.751738276673574E-006
   108.478125000000         7.399215038987219E-006
   108.691875000000         9.737705214566732E-006
   108.905625000000         1.162768234091565E-005
   109.119375000000         1.295062275918775E-005
   109.333125000000         1.361643416367656E-005
   109.546875000000         1.356928032517641E-005
   109.760625000000         1.279142675714355E-005
   109.974375000000         1.130486048807154E-005
   110.188125000000         9.170580936804721E-006
   110.401875000000         6.485607812947763E-006
   110.615625000000         3.377895482510802E-006
   110.829375000000        -5.284796972458713E-010
   111.043125000000        -3.481778197337351E-006
   111.256875000000        -6.891180913973213E-006
   111.470625000000        -1.005666738479933E-005
   111.684375000000        -1.281793841012429E-005
   111.898125000000        -1.503489343087140E-005
   112.111875000000        -1.659486625640234E-005
   112.325625000000        -1.741829699276364E-005
   112.539375000000        -1.746257117443030E-005
   112.753125000000        -1.672386934503146E-005
   112.966875000000        -1.523698518152809E-005
   113.180625000000        -1.307318053695139E-005
   113.394375000000        -1.033624533413333E-005
   113.608125000000        -7.157014294375044E-006
   113.821875000000        -3.686657810918394E-006
   114.035625000000        -8.910924585376167E-008
   114.249375000000         3.466984626261574E-006
   114.463125000000         6.816398328789900E-006
   114.676875000000         9.805168382047827E-006
   114.890625000000         1.229778835745562E-005
   115.104375000000         1.418344645192252E-005
   115.318125000000         1.538104314203994E-005
   115.531875000000         1.584278305144235E-005
   115.745625000000         1.555619685083351E-005
   115.959375000000         1.454451408617213E-005
   116.173125000000         1.286537482798641E-005
   116.386875000000         1.060793559001865E-005
   116.600625000000         7.888491645200103E-006
   116.814375000000         4.844802007430863E-006
   117.028125000000         1.629362941130630E-006
   117.241875000000        -1.598071481063897E-006
   117.455625000000        -4.678380240433605E-006
   117.669375000000        -7.461005638833437E-006
   117.883125000000        -9.811535811512365E-006
   118.096875000000        -1.161855496609298E-005
   118.310625000000        -1.279939899039514E-005
   118.524375000000        -1.330449649074977E-005
   118.738125000000        -1.312003746329322E-005
   118.951875000000        -1.226879170311094E-005
   119.165625000000        -1.080899329934726E-005
   119.379375000000        -8.831311374790366E-006
   119.593125000000        -6.454034729097011E-006
   119.806875000000        -3.816702633198128E-006
   120.020625000000        -1.072508845440970E-006
   120.234375000000         1.620115595036847E-006
   120.448125000000         4.106278850268446E-006
   120.661875000000         6.243272239249691E-006
   120.875625000000         7.908589285699682E-006
   121.089375000000         9.006856930246926E-006
   121.303125000000         9.475274148699767E-006
   121.516875000000         9.287236767107186E-006
   121.730625000000         8.453931074427567E-006
   121.944375000000         7.023796378508654E-006
   122.158125000000         5.079880483112137E-006
   122.371875000000         2.735234365586743E-006
   122.585625000000         1.266054873949199E-007
   122.799375000000        -2.593213712760972E-006
   123.013125000000        -5.263950204978078E-006
   123.226875000000        -7.726846190322168E-006
   123.440625000000        -9.833583695927804E-006
   123.654375000000        -1.145464291873217E-005
   123.868125000000        -1.248663460296944E-005