  -1.60312500000000         9.879362828441442E-021
  -1.38937500000000         9.163260798365292E-018
  -1.17562500000000         8.612319893823036E-017
 -0.961875000000000         4.945527324182398E-016
 -0.748125000000000         2.208203522201475E-015
 -0.534375000000000         8.241168321394958E-015
 -0.320625000000000         2.652555192498421E-014
 -0.106875000000000         7.505084867684704E-014
  0.106875000000000         1.895344797888342E-013
  0.320625000000000         4.331586779209647E-013
  0.534375000000000         9.072857345204992E-013
  0.748125000000000         1.761660073499502E-012
  0.961875000000000         3.202562571270859E-012
   1.17562500000000         5.496807189558120E-012
   1.38937500000000         8.969244927920521E-012
   1.60312500000000         1.399153030688973E-011
   1.81687500000000         2.096126865739023E-011
   2.03062500000000         3.027185102598171E-011
   2.24437500000000         4.227459215636038E-011
   2.45812500000000         5.723710168166017E-011
   2.67187500000000         7.530251409717020E-011
   2.88562500000000         9.645512144313953E-011
   3.09937500000000         1.204967457424359E-010
   3.31312500000000         1.470387008220896E-010
   3.52687500000000         1.755142232660676E-010
   3.74062500000000         2.052090536629286E-010
   3.95437500000000         2.353056188779972E-010
   4.16812500000000         2.649425385114790E-010
   4.38187500000000         2.932762205155691E-010
   4.59562500000000         3.195361388583603E-010
   4.80937500000000         3.430734326829146E-010
   5.02312500000000         3.633883065698854E-010
   5.23687500000000         3.801367784207731E-010
   5.45062500000000         3.931223528923282E-010
   5.66437500000000         4.022700171439747E-010
   5.87812500000000         4.075933137757241E-010
   6.09187500000000         4.091678135640099E-010
   6.30562500000000         4.071157887314904E-010
   6.51937500000000         4.016099603319848E-010
   6.73312500000000         3.928999525586026E-010
   6.94687500000000         3.813582912256408E-010
   7.16062500000000         3.675364617840566E-010
   7.37437500000000         3.522188286629068E-010
   7.58812500000000         3.364613864789161E-010
   7.80187500000000         3.215971130077201E-010
   8.01562500000000         3.092022918086665E-010
   8.22937500000000         3.010180075776389E-010
   8.44312500000000         2.988310671720795E-010
   8.65687500000000         3.043265114265543E-010
   8.87062500000000         3.189309333319295E-010
   9.08437500000000         3.436729932812057E-010
   9.29812500000000         3.790796150742671E-010
   9.51187500000000         4.251300949296768E-010
   9.72562500000000         4.812739964596079E-010
   9.93937500000000         5.465152253008914E-010
   10.1531250000000         6.195514751051367E-010
   10.3668750000000         6.989434670309132E-010
   10.5806250000000         7.832908815123446E-010
   10.7943750000000         8.713839188828131E-010
   11.0081250000000         9.623070806132888E-010
   11.2218750000000         1.055481199027355E-009
   11.4356250000000         1.150638898072569E-009
   11.6493750000000         1.247746127227523E-009
   11.8631250000000         1.346887974756673E-009
   12.0768750000000         1.448147255509211E-009
   12.2906250000000         1.551506579345705E-009
   12.5043750000000         1.656797197103180E-009
   12.7181250000000         1.763712374612841E-009
   12.9318750000000         1.871883743321928E-009
   13.1456250000000         1.981009978506553E-009
   13.3593750000000         2.091010824281315E-009
   13.5731250000000         2.202174936017232E-009
   13.7868750000000         2.315268979795931E-009
   14.0006250000000         2.431577433981300E-009
   14.2143750000000         2.552856932532931E-009
   14.4281250000000         2.681204008805062E-009
   14.6418750000000         2.818852522660916E-009
   14.8556250000000         2.967927340220533E-009
   15.0693750000000         3.130192783670595E-009
   15.2831250000000         3.306837270542920E-009
   15.4968750000000         3.498329966133887E-009
   15.7106250000000         3.704371000290747E-009
   15.9243750000000         3.923944118737732E-009
   16.1381250000000         4.155460788571391E-009
   16.3518750000000         4.396971753279702E-009
   16.5656250000000         4.646409705275904E-009
   16.7793750000000         4.901820173736726E-009
   16.9931250000000         5.161548030963736E-009
   17.2068750000000         5.424351581528922E-009
   17.4206250000000         5.689431021370198E-009
   17.6343750000000         5.956374856762203E-009
   17.8481250000000         6.225044593051993E-009
   18.0618750000000         6.495424017762929E-009
   18.2756250000000         6.767466127728603E-009
   18.4893750000000         7.040974856349215E-009
   18.7031250000000         7.315538434101969E-009
   18.9168750000000         7.590530321232088E-009
   19.1306250000000         7.865177863678518E-009
   19.3443750000000         8.138681634476847E-009
   19.5581250000000         8.410364332290879E-009
   19.7718750000000         8.679820637353484E-009
   19.9856250000000         8.947043166118113E-009
   20.1993750000000         9.212501309155430E-009
   20.4131250000000         9.477162294000601E-009
   20.6268750000000         9.742452044372541E-009
   20.8406250000000         1.001016184210328E-008
   21.0543750000000         1.028231770521814E-008
   21.2681250000000         1.056103211342099E-008
   21.4818750000000         1.084835568430765E-008
   21.6956250000000         1.114614564125885E-008
   21.9093750000000         1.145596349188175E-008
   22.1231250000000         1.177900844125095E-008
   22.3368750000000         1.211608652412129E-008
   22.5506250000000         1.246761023899580E-008
   22.7643750000000         1.283362430325069E-008
   22.9781250000000         1.321384908215133E-008
   23.1918750000000         1.360773394956518E-008
   23.4056250000000         1.401451650879692E-008
   23.6193750000000         1.443328113916038E-008
   23.8331250000000         1.486301585900604E-008
   24.0468750000000         1.530266342888881E-008
   24.2606250000000         1.575116732810336E-008
   24.4743750000000         1.620751125052982E-008
   24.6881250000000         1.667074799377192E-008
   24.9018750000000         1.714002479765872E-008
   25.1156250000000         1.761460090921961E-008
   25.3293750000000         1.809386537444464E-008
   25.5431250000000         1.857735871012425E-008
   25.7568750000000         1.906479958015233E-008
   25.9706250000000         1.955612429343422E-008
   26.1843750000000         2.005153631061381E-008
   26.3981250000000         2.055156397645807E-008
   26.6118750000000         2.105711844516429E-008
   26.8256250000000         2.156953732701447E-008
   27.0393750000000         2.209060083280739E-008
   27.2531250000000         2.262250692411860E-008
   27.4668750000000         2.316778886314368E-008
   27.6806250000000         2.372917392275662E-008
   27.8943750000000         2.430938584887877E-008
   28.1081250000000         2.491090219054825E-008
   28.3218750000000         2.553569771094732E-008
   28.5356250000000         2.618499788537418E-008
   28.7493750000000         2.685908434922673E-008
   28.9631250000000         2.755718550582831E-008
   29.1768750000000         2.827747864236731E-008
   29.3906250000000         2.901722387764828E-008
   29.6043750000000         2.977302302541364E-008
   29.8181250000000         3.054119172979498E-008
   30.0318750000000         3.131820848859497E-008
   30.2456250000000         3.210118434156393E-008
   30.4593750000000         3.288829723147501E-008
   30.6731250000000         3.367912337511308E-008
   30.8868750000000         3.447480400605805E-008
   31.1006250000000         3.527799835944266E-008
   31.3143750000000         3.609259338108689E-008
   31.5281250000000         3.692317138156674E-008
   31.7418750000000         3.777426570629974E-008
   31.9556250000000         3.864947330679087E-008
   32.1693750000000         3.955052273081755E-008
   32.3831250000000         4.047642810564503E-008
   32.5968750000000         4.142287468088086E-008
   32.8106250000000         4.238198157229051E-008
   33.0243750000000         4.334257020798620E-008
   33.2381250000000         4.429102369493713E-008
   33.4518750000000         4.521275623903072E-008
   33.6656250000000         4.609422704713070E-008
   33.8793750000000         4.692533461756185E-008
   34.0931250000000         4.770193310181226E-008
   34.3068750000000         4.842812584947244E-008
   34.5206250000000         4.911793125653330E-008
   34.7343750000000         4.979591693253616E-008
   34.9481250000000         5.049644641256802E-008
   35.1618750000000         5.126129921605048E-008
   35.3756250000000         5.213561136512083E-008
   35.5893750000000         5.316231772358445E-008
   35.8031250000000         5.437554083772254E-008
   36.0168750000000         5.579363062461177E-008
   36.2306250000000         5.741277459909899E-008
   36.4443750000000         5.920222240730296E-008
   36.6581250000000         6.110217503256576E-008
   36.8718750000000         6.302523220918256E-008
   37.0856250000000         6.486198567399378E-008
   37.2993750000000         6.649088200139132E-008
   37.5131250000000         6.779190223376012E-008
   37.7268750000000         6.866298630518369E-008
   37.9406250000000         6.903752396668163E-008
   38.1543750000000         6.890076080857762E-008
   38.3681250000000         6.830268933154018E-008
   38.5818750000000         6.736500704752128E-008
   38.7956250000000         6.628007191847995E-008
   39.0093750000000         6.530046735275669E-008
   39.2231250000000         6.471879346251108E-008
   39.4368750000000         6.483852581185556E-008
   39.6506250000000         6.593810539544824E-008
   39.8643750000000         6.823168258316979E-008
   40.0781250000000         7.183095125682019E-008
   40.2918750000000         7.671310577054953E-008
   40.5056250000000         8.269998219042778E-008
   40.7193750000000         8.945282384737660E-008
   40.9331250000000         9.648582017950199E-008
   41.1468750000000         1.031996685944107E-007
   41.3606250000000         1.089340845468890E-007
   41.5743750000000         1.130356515815008E-007
   41.7881250000000         1.149349770672217E-007
   42.0018750000000         1.142251253702208E-007
   42.2156250000000         1.107320493611487E-007
   42.4293750000000         1.045674989407878E-007
   42.6431250000000         9.615579656511017E-008
   42.8568750000000         8.622799413127399E-008
   43.0706250000000         7.578009535951614E-008
   43.2843750000000         6.599599793042856E-008
   43.4981250000000         5.814016207088830E-008
   43.7118750000000         5.342921262679459E-008
   43.9256250000000         5.289520905132708E-008
   44.1393750000000         5.725562401760312E-008
   44.3531250000000         6.680574419336114E-008
   44.5668750000000         8.134799353602547E-008
   44.7806250000000         1.001695286256812E-007
   44.9943750000000         1.220745995577653E-007
   45.2081250000000         1.454720670475870E-007
   45.4218750000000         1.685117739252619E-007
   45.6356250000000         1.892570283765532E-007
   45.8493750000000         2.058751159571943E-007
   46.0631250000000         2.168243360032939E-007
   46.2768750000000         2.210151670830836E-007
   46.4906250000000         2.179251720029243E-007
   46.7043750000000         2.076521354780495E-007
   46.9181250000000         1.908972699131009E-007
   47.1318750000000         1.688793624507009E-007
   47.3456250000000         1.431903474763635E-007
   47.5593750000000         1.156116842546844E-007
   47.7731250000000         8.791774840142271E-008
   47.9868750000000         6.169601237331123E-008
   48.2006250000000         3.821320491696983E-008
   48.4143750000000         1.835150747634925E-008
   48.6281250000000         2.629374460393914E-009
   48.8418750000000        -8.691415408785727E-009
   49.0556250000000        -1.542589165097778E-008
   49.2693750000000        -1.724172617549102E-008
   49.4831250000000        -1.343223291141902E-008
   49.6968750000000        -2.736512358717676E-009
   49.9106250000000         1.674119633582734E-008
   50.1243750000000         4.746664329616660E-008
   50.3381250000000         9.223298882230374E-008
   50.5518750000000         1.537302922816999E-007
   50.7656250000000         2.339449484052204E-007
   50.9793750000000         3.334383939013116E-007
   51.1931250000000         4.505854297165196E-007
   51.4068750000000         5.808787713947095E-007
   51.6206250000000         7.164234916133176E-007
   51.8343750000000         8.457487958665582E-007
   52.0481250000000         9.540520276071274E-007
   52.2618750000000         1.023959415138259E-006
   52.4756250000000         1.036840300152019E-006
   52.6893750000000         9.746491489824341E-007
   52.9031250000000         8.221974996743646E-007
   53.1168750000000         5.696831723474301E-007
   53.3306250000000         2.152351177691342E-007
   53.5443750000000        -2.328214827694980E-007
   53.7581250000000        -7.543047057452708E-007
   53.9718750000000        -1.316442164679072E-006
   54.1856250000000        -1.874346168438041E-006
   54.3993750000000        -2.372900283101890E-006
   54.6131250000000        -2.750143033951921E-006
   54.8268750000000        -2.942087221711393E-006
   55.0406250000000        -2.888746820062085E-006
   55.2543750000000        -2.540972810642276E-006
   55.4681250000000        -1.867542470123559E-006
   55.6818750000000        -8.618226339966663E-007
   55.8956250000000         4.527453348701888E-007
   56.1093750000000         2.019097266536319E-006
   56.3231250000000         3.745621875474234E-006
   56.5368750000000         5.508395518411072E-006
   56.7506250000000         7.156882032029006E-006
   56.9643750000000         8.523110475217149E-006
   57.1781250000000         9.434007377550890E-006
   57.3918750000000         9.726209043538276E-006
   57.6056250000000         9.262346726281880E-006
   57.8193750000000         7.947518312793810E-006
   58.0331250000000         5.744468451412579E-006
   58.2468750000000         2.685923690558446E-006
   58.4606250000000        -1.117409366009489E-006
   58.6743750000000        -5.474467659974248E-006
   58.8881250000000        -1.011801316474427E-005
   59.1018750000000        -1.471583690786502E-005
   59.3156250000000        -1.888888800200640E-005
   59.5293750000000        -2.223562086247071E-005
   59.7431250000000        -2.436124898699779E-005
   59.9568750000000        -2.491004845004853E-005
   60.1706250000000        -2.359842206338722E-005
   60.3843750000000        -2.024616236337482E-005
   60.5981250000000        -1.480327268943180E-005
   60.8118750000000        -7.369839233026529E-006
   61.0256250000000         1.793206747477995E-006
   61.2393750000000         1.226405722674306E-005
   61.4531250000000         2.347164984186861E-005
   61.6668750000000         3.471906578627362E-005
   61.8806250000000         4.521797898015890E-005
   62.0943750000000         5.413260996949009E-005
   62.3081250000000         6.063090334655670E-005
   62.5218750000000         6.394005713723570E-005
   62.7356250000000         6.340312987778602E-005
   62.9493750000000         5.853326230174051E-005
   63.1631250000000         4.906208305843861E-005
   63.3768750000000         3.497911036446868E-005
   63.5906250000000         1.655938627492292E-005
   63.8043750000000        -5.622852531580607E-006
   64.0181250000000        -3.069600066914301E-005
   64.2318750000000        -5.750922887128033E-005
   64.4456250000000        -8.466705355876057E-005
   64.6593750000000        -1.105797484077604E-004
   64.8731250000000        -1.335283749645829E-004
   65.0868750000000        -1.517426245880462E-004
   65.3006250000000        -1.634891297171801E-004
   65.5143750000000        -1.671674053455959E-004
   65.7281250000000        -1.614101052417221E-004
   65.9418750000000        -1.451838089320243E-004
   66.1556250000000        -1.178860917061759E-004
   66.3693750000000        -7.943418324331292E-005
   66.5831250000000        -3.034012234203579E-005
   66.7968750000000         2.823298286584965E-005
   67.0106250000000         9.443910878330336E-005
   67.2243750000000         1.657472825260811E-004
   67.4381250000000         2.389743026140800E-004
   67.6518750000000         3.103562892598018E-004
   67.8656250000000         3.756618049901231E-004
   68.0793750000000         4.303474612132501E-004
   68.2931250000000         4.697546301448193E-004
   68.5068750000000         4.893431845345915E-004
   68.7206250000000         4.849552139179924E-004
   68.9343750000000         4.530985910307151E-004
   69.1481250000000         3.912373042557218E-004
   69.3618750000000         2.980728797145589E-004
   69.5756250000000         1.737992492289549E-004
   69.7893750000000         2.031232642060501E-005
   70.0031250000000        -1.586444531418480E-004
   70.2168750000000        -3.574161336665821E-004
   70.4306250000000        -5.684687265189315E-004
   70.6443750000000        -7.825292542393976E-004
   70.8581250000000        -9.888393532512991E-004
   71.0718750000000        -1.175522388547986E-003
   71.2856250000000        -1.330057315133286E-003
   71.4993750000000        -1.439845520023932E-003
   71.7131250000000        -1.492850035908697E-003
   71.9268750000000        -1.478280297528766E-003
   72.1406250000000        -1.387290469311585E-003
   72.3543750000000        -1.213655718962355E-003
   72.5681250000000        -9.543889818275313E-004
   72.7818750000000        -6.102609864185474E-004
   72.9956250000000        -1.861886995706673E-004
   73.2093750000000         3.085381293312961E-004
   73.4231250000000         8.602161604393554E-004
   73.6368750000000         1.450889077697362E-003
   73.8506250000000         2.058715911143891E-003
   74.0643750000000         2.658543204976004E-003
   74.2781250000000         3.222666831406318E-003
   74.4918750000000         3.721759302413592E-003
   74.7056250000000         4.125929435877752E-003
   74.9193750000000         4.405873699425632E-003
   75.1331250000000         4.534072910454501E-003
   75.3468750000000         4.485984530065082E-003
   75.5606250000000         4.241179739708765E-003
   75.7743750000000         3.784375882665969E-003
   75.9881250000000         3.106318600915923E-003
   76.2018750000000         2.204473885535032E-003
   76.4156250000000         1.083497957247175E-003
   76.6293750000000        -2.445380145344139E-004
   76.8431250000000        -1.760181340063083E-003
   77.0568750000000        -3.436891961489618E-003
   77.2706250000000        -5.241589603057252E-003
   77.4843750000000        -7.135436479210873E-003
   77.6981250000000        -9.074829420229859E-003
   77.9118750000000        -1.101256793689941E-002
   78.1256250000000        -1.289915902547374E-002
   78.3393750000000        -1.468421556580865E-002
   78.5531250000000        -1.631790303968963E-002
   78.7668750000000        -1.775238894501379E-002
   78.9806250000000        -1.894325056913606E-002
   79.1943750000000        -1.985079950457110E-002
   79.4081250000000        -2.044128518432572E-002
   79.6218750000000        -2.068794449546753E-002
   79.8356250000000        -2.057186990506502E-002
   80.0493750000000        -2.008267422499280E-002
   80.2631250000000        -1.921893590841421E-002
   80.4768750000000        -1.798841441738027E-002
   80.6906250000000        -1.640803059282808E-002
   80.9043750000000        -1.450361202201398E-002
   81.1181250000000        -1.230940811968793E-002
   81.3318750000000        -9.867384053600638E-003
   81.5456250000000        -7.226306823605331E-003
   81.7593750000000        -4.440640835976751E-003
   81.9731250000000        -1.569274287761633E-003
   82.1868750000000         1.325898345343545E-003
   82.4006250000000         4.181508416325056E-003
   82.6143750000000         6.934326503378690E-003
   82.8281250000000         9.522919884964657E-003
   83.0418750000000         1.188931324262307E-002
   83.2556250000000         1.398060859187855E-002
   83.4693750000000         1.575051805993645E-002
   83.6831250000000         1.716076182028404E-002
   83.8968750000000         1.818228356875634E-002
   84.1106250000000         1.879623766825817E-002
   84.3243750000000         1.899470573000170E-002
   84.5381250000000         1.878110608322952E-002
   84.7518750000000         1.817026734892540E-002
   84.9656250000000         1.718814708398395E-002
   85.1793750000000         1.587118797088316E-002
   85.3931250000000         1.426531692651458E-002
   85.6068750000000         1.242460629801697E-002
   85.8206250000000         1.040963040304230E-002
   86.0343750000000         8.285564381498568E-003
   86.2481250000000         6.120084942832413E-003
   86.4618750000000         3.981143410210106E-003
   86.6756250000000         1.934689823383738E-003
   86.8893750000000         4.243220170725490E-005
   87.1031250000000        -1.640283044344205E-003
   87.3168750000000        -3.066385399574198E-003
   87.5306250000000        -4.198710715089421E-003
   87.7443750000000        -5.011278684684239E-003
   87.9581250000000        -5.490160868618341E-003
   88.1718750000000        -5.633898426909346E-003
   88.3856250000000        -5.453446595801341E-003
   88.5993750000000        -4.971642289956211E-003
   88.8131250000000        -4.222211177054680E-003
   89.0268750000000        -3.248350243930025E-003
   89.2406250000000        -2.100940346895604E-003
   89.4543750000000        -8.364596500335089E-004
   89.6681250000000         4.853175751311773E-004
   89.8818750000000         1.803742245389180E-003
   90.0956250000000         3.059731251994741E-003
   90.3093750000000         4.198125412930756E-003
   90.5231250000000         5.169865036505562E-003
   90.7368750000000         5.933890749538109E-003
   90.9506250000000         6.458688643429500E-003
   91.1643750000000         6.723413947735518E-003
   91.3781250000000         6.718545742908130E-003
   91.5918750000000         6.446045907299467E-003
   91.8056250000000         5.919017667631880E-003
   92.0193750000000         5.160881803418145E-003
   92.2331250000000         4.204110706920752E-003
   92.4468750000000         3.088581073781605E-003
   92.6606250000000         1.859623985035767E-003
   92.8743750000000         5.658656148613123E-004
   93.0881250000000        -7.430380284995796E-004
   93.3018750000000        -2.018663655457954E-003
   93.5156250000000        -3.215971893656486E-003
   93.7293750000000        -4.295243929669504E-003
   93.9431250000000        -5.223711107660685E-003
   94.1568750000000        -5.976800555188955E-003
   94.3706250000000        -6.538939595998387E-003
   94.5843750000000        -6.903884577087750E-003
   94.7981250000000        -7.074564620811723E-003
   95.0118750000000        -7.062456402131716E-003
   95.2256250000000        -6.886530958612832E-003
   95.4393750000000        -6.571836380211079E-003
   95.6531250000000        -6.147799695743874E-003
   95.8668750000000        -5.646346237407621E-003
   96.0806250000000        -5.099944327215771E-003
   96.2943750000000        -4.539686692831143E-003
   96.5081250000000        -3.993517330179926E-003
   96.7218750000000        -3.484703695103977E-003
   96.9356250000000        -3.030639596222472E-003
   97.1493750000000        -2.642044782167007E-003
   97.3631250000000        -2.322604063222205E-003
   97.5768750000000        -2.069063197662006E-003
   97.7906250000000        -1.871772167405614E-003
   98.0043750000000        -1.715640381752256E-003
   98.2181250000000        -1.581444262492657E-003
   98.4318750000000        -1.447406938214737E-003
   98.6456250000000        -1.290953571890464E-003
   98.8593750000000        -1.090535065474533E-003
   99.0731250000000        -8.274081246018909E-004
   99.2868750000000        -4.872611905135814E-004
   99.5006250000000        -6.158348203628228E-005
   99.7143750000000         4.513120617341043E-004
   99.9281250000000         1.045682485900626E-003
   100.141875000000         1.708212900811066E-003
   100.355625000000         2.418360858318252E-003
   100.569375000000         3.149181454253547E-003
   100.783125000000         3.868599829509014E-003
   100.996875000000         4.541071147145360E-003
   101.210625000000         5.129544093771187E-003
   101.424375000000         5.597623800522989E-003
   101.638125000000         5.911814964322093E-003
   101.851875000000         6.043716833790864E-003
   102.065625000000         5.972039315036451E-003
   102.279375000000         5.684314163606325E-003
   102.493125000000         5.178187140624177E-003
   102.706875000000         4.462195843056287E-003
   102.920625000000         3.555963013739369E-003
   103.134375000000         2.489765463944194E-003
   103.348125000000         1.303472911201403E-003
   103.561875000000         4.488734425646724E-005
   103.775625000000        -1.232449978318055E-003
   103.989375000000        -2.471882224168598E-003
   104.203125000000        -3.616559236342784E-003
   104.416875000000        -4.612501908191481E-003
   104.630625000000        -5.411636027074358E-003
   104.844375000000        -5.974616271970768E-003
   105.058125000000        -6.273264988712030E-003
   105.271875000000        -6.292465323478408E-003
   105.485625000000        -6.031374006623591E-003
   105.699375000000        -5.503854554204704E-003
   105.913125000000        -4.738075184179051E-003
   106.126875000000        -3.775264960998674E-003
   106.340625000000        -2.667673677458912E-003
   106.554375000000        -1.475832471791803E-003
   106.768125000000        -2.652597093522573E-004
   106.981875000000         8.972031504775142E-004
   107.195625000000         1.947211193807311E-003
   107.409375000000         2.826659807257334E-003
   107.623125000000         3.487118903541327E-003
   107.836875000000         3.892737121447324E-003
   108.050625000000         4.022423771963311E-003
   108.264375000000         3.871158314267785E-003
   108.478125000000         3.450330483300177E-003
   108.691875000000         2.787075525156382E-003
   108.905625000000         1.922634295102751E-003
   109.119375000000         9.098327726331571E-004
   109.333125000000        -1.901647267256853E-004
   109.546875000000        -1.311624060286800E-003
   109.760625000000        -2.388289809998914E-003
   109.974375000000        -3.357451230568815E-003
   110.188125000000        -4.163759910219817E-003
   110.401875000000        -4.762548879690908E-003
   110.615625000000        -5.122435952284279E-003
   110.829375000000        -5.227042602966719E-003
   111.043125000000        -5.075720362421968E-003
   111.256875000000        -4.683245224225981E-003
   111.470625000000        -4.078512010851042E-003
   111.684375000000        -3.302329815723943E-003
   111.898125000000        -2.404481457240414E-003
   112.111875000000        -1.440259786916942E-003
   112.325625000000        -4.667280028209421E-004
   112.539375000000         4.610326868685892E-004
   112.753125000000         1.293427775004550E-003
   112.966875000000         1.989368281766962E-003
   113.180625000000         2.518604635179694E-003
   113.394375000000         2.863229853369507E-003
   113.608125000000         3.018269551231214E-003
   113.821875000000         2.991344649276318E-003
   114.035625000000         2.801460853109694E-003
   114.249375000000         2.477041810711572E-003
   114.463125000000         2.053375620108687E-003
   114.676875000000         1.569683167217651E-003
   114.890625000000         1.066038875842284E-003
   115.104375000000         5.803784483209030E-004
   115.318125000000         1.458141095277311E-004
   115.531875000000        -2.115527933541520E-004
   115.745625000000        -4.741764805654144E-004
   115.959375000000        -6.338778914111119E-004
   116.173125000000        -6.918914895048362E-004
   116.386875000000        -6.581775356815386E-004
   116.600625000000        -5.500860287164214E-004
   116.814375000000        -3.905062665709495E-004
   117.028125000000        -2.056714957723031E-004
   117.241875000000        -2.280886310363767E-005
   117.455625000000         1.321704070354562E-004
   117.669375000000         2.367569411853479E-004
   117.883125000000         2.735474181204406E-004
   118.096875000000         2.314470709736265E-004
   118.310625000000         1.062969163530120E-004
   118.524375000000        -9.909704307397054E-005
   118.738125000000        -3.755045365242758E-004
   118.951875000000        -7.083069368686612E-004
   119.165625000000        -1.078915072423101E-003
   119.379375000000        -1.466428169945384E-003
   119.593125000000        -1.849378797188073E-003
   119.806875000000        -2.207408272916677E-003
   120.020625000000        -2.522730205268833E-003
   120.234375000000        -2.781265072939960E-003
   120.448125000000        -2.973363535609915E-003
   120.661875000000        -3.094077136630380E-003
   120.875625000000        -3.142978457992913E-003
   121.089375000000        -3.123574686645963E-003
   121.303125000000        -3.042395242848449E-003
   121.516875000000        -2.907862424385363E-003
   121.730625000000        -2.729071551630948E-003
   121.944375000000        -2.514612467603849E-003
   122.158125000000        -2.271557164549230E-003
   122.371875000000        -2.004719594265946E-003
   122.585625000000        -1.716265216041627E-003
   122.799375000000        -1.405712233844498E-003
   123.013125000000        -1.070327064385229E-003
   123.226875000000        -7.058769559666312E-004
   123.440625000000        -3.076664275524811E-004
   123.654375000000         1.282454252219381E-004
   123.868125000000         6.037700555841076E-004