  -1.60312500000000        -5.174900869602316E-018
  -1.38937500000000        -5.170677441993156E-018
  -1.17562500000000        -1.257606878301154E-018
 -0.961875000000000         3.164699010410032E-017
 -0.748125000000000         2.101636862304964E-016
 -0.534375000000000         9.756539958452312E-016
 -0.320625000000000         3.733263143626841E-015
 -0.106875000000000         1.231532744377598E-014
  0.106875000000000         3.581750095297896E-014
  0.320625000000000         9.334131755350254E-014
  0.534375000000000         2.209928357641914E-013
  0.748125000000000         4.812059690610158E-013
  0.961875000000000         9.741025171852284E-013
   1.17562500000000         1.850301468279307E-012
   1.38937500000000         3.323987590721324E-012
   1.60312500000000         5.684653674965328E-012
   1.81687500000000         9.305366796916682E-012
   2.03062500000000         1.464559602599966E-011
   2.24437500000000         2.224658311052386E-011
   2.45812500000000         3.271798417284371E-011
   2.67187500000000         4.671544407943357E-011
   2.88562500000000         6.490980894938396E-011
   3.09937500000000         8.795000849637569E-011
   3.31312500000000         1.164221677542753E-010
   3.52687500000000         1.508090530978190E-010
   3.74062500000000         1.914544982005192E-010
   3.95437500000000         2.385359235387210E-010
   4.16812500000000         2.920476502708630E-010
   4.38187500000000         3.517988587523782E-010
   4.59562500000000         4.174232345412688E-010
   4.80937500000000         4.884005581143272E-010
   5.02312500000000         5.640871270132148E-010
   5.23687500000000         6.437490591729531E-010
   5.45062500000000         7.265955997880951E-010
   5.66437500000000         8.118088650344237E-010
   5.87812500000000         8.985660321171445E-010
   6.09187500000000         9.860550066735452E-010
   6.30562500000000         1.073485272415758E-009
   6.51937500000000         1.160097006356258E-009
   6.73312500000000         1.245173530457682E-009
   6.94687500000000         1.328061736075060E-009
   7.16062500000000         1.408204199956644E-009
   7.37437500000000         1.485183573487745E-009
   7.58812500000000         1.558777749210036E-009
   7.80187500000000         1.629020816207481E-009
   8.01562500000000         1.696260515020837E-009
   8.22937500000000         1.761204795955686E-009
   8.44312500000000         1.824945713260278E-009
   8.65687500000000         1.888955077171750E-009
   8.87062500000000         1.955045296895129E-009
   9.08437500000000         2.025298051171149E-009
   9.29812500000000         2.101965501522845E-009
   9.51187500000000         2.187354586615399E-009
   9.72562500000000         2.283708617105282E-009
   9.93937500000000         2.393099220101882E-009
   10.1531250000000         2.517343875921412E-009
   10.3668750000000         2.657957475709327E-009
   10.5806250000000         2.816142208077126E-009
   10.7943750000000         2.992814327555855E-009
   11.0081250000000         3.188658833399529E-009
   11.2218750000000         3.404200604518034E-009
   11.4356250000000         3.639877045983724E-009
   11.6493750000000         3.896098733444058E-009
   11.8631250000000         4.173288515373491E-009
   12.0768750000000         4.471893342652534E-009
   12.2906250000000         4.792371467103676E-009
   12.5043750000000         5.135162405322824E-009
   12.7181250000000         5.500652268865290E-009
   12.9318750000000         5.889149445469815E-009
   13.1456250000000         6.300882569135414E-009
   13.3593750000000         6.736031211281368E-009
   13.5731250000000         7.194789696515675E-009
   13.7868750000000         7.677460996428732E-009
   14.0006250000000         8.184567185378431E-009
   14.2143750000000         8.716960349455734E-009
   14.4281250000000         9.275913524036261E-009
   14.6418750000000         9.863175063219900E-009
   14.8556250000000         1.048097297747380E-008
   15.0693750000000         1.113196400116418E-008
   15.2831250000000         1.181913039249299E-008
   15.4968750000000         1.254563693432128E-008
   15.7106250000000         1.331466645301522E-008
   15.9243750000000         1.412925553694557E-008
   16.1381250000000         1.499215256377560E-008
   16.3518750000000         1.590571502405983E-008
   16.5656250000000         1.687185798830267E-008
   16.7793750000000         1.789205517306529E-008
   16.9931250000000         1.896738611257512E-008
   17.2068750000000         2.009861695630228E-008
   17.4206250000000         2.128629641367874E-008
   17.6343750000000         2.253084871793805E-008
   17.8481250000000         2.383264666494457E-008
   18.0618750000000         2.519205528146778E-008
   18.2756250000000         2.660944043253823E-008
   18.4893750000000         2.808514705107174E-008
   18.7031250000000         2.961945718362751E-008
   18.9168750000000         3.121253973165033E-008
   19.1306250000000         3.286440889595423E-008
   19.3443750000000         3.457490326837291E-008
   19.5581250000000         3.634369529469310E-008
   19.7718750000000         3.817033402042726E-008
   19.9856250000000         4.005431861716170E-008
   20.1993750000000         4.199519497394274E-008
   20.4131250000000         4.399266292682563E-008
   20.6268750000000         4.604668185462800E-008
   20.8406250000000         4.815756117579489E-008
   21.0543750000000         5.032602604212716E-008
   21.2681250000000         5.255325199477564E-008
   21.4818750000000         5.484086727061463E-008
   21.6956250000000         5.719092404981720E-008
   21.9093750000000         5.960584453225281E-008
   22.1231250000000         6.208834844259663E-008
   22.3368750000000         6.464137064088757E-008
   22.5506250000000         6.726797543165849E-008
   22.7643750000000         6.997127401805829E-008
   22.9781250000000         7.275434982129815E-008
   23.1918750000000         7.562019450067797E-008
   23.4056250000000         7.857165608473728E-008
   23.6193750000000         8.161140030818866E-008
   23.8331250000000         8.474188377172835E-008
   24.0468750000000         8.796533958791374E-008
   24.2606250000000         9.128377238757831E-008
   24.4743750000000         9.469896362067793E-008
   24.6881250000000         9.821248344717981E-008
   24.9018750000000         1.018257083880155E-007
   25.1156250000000         1.055398440481789E-007
   25.3293750000000         1.093559502767068E-007
   25.5431250000000         1.132749714957540E-007
   25.7568750000000         1.172977711252850E-007
   25.9706250000000         1.214251733162691E-007
   26.1843750000000         1.256580142607281E-007
   26.3981250000000         1.299972050890565E-007
   26.6118750000000         1.344438078606638E-007
   26.8256250000000         1.389991232243642E-007
   27.0393750000000         1.436647850679626E-007
   27.2531250000000         1.484428550803894E-007
   27.4668750000000         1.533359067780233E-007
   27.6806250000000         1.583470848193833E-007
   27.8943750000000         1.634801286300018E-007
   28.1081250000000         1.687393472697790E-007
   28.3218750000000         1.741295393164611E-007
   28.5356250000000         1.796558580412090E-007
   28.7493750000000         1.853236259124586E-007
   28.9631250000000         1.911381166005034E-007
   29.1768750000000         1.971043227162002E-007
   29.3906250000000         2.032267387201154E-007
   29.6043750000000         2.095091859238948E-007
   29.8181250000000         2.159547060634797E-007
   30.0318750000000         2.225655453883820E-007
   30.2456250000000         2.293432401923540E-007
   30.4593750000000         2.362888016944007E-007
   30.6731250000000         2.434029872588097E-007
   30.8868750000000         2.506866269372615E-007
   31.1006250000000         2.581409659713995E-007
   31.3143750000000         2.657679712359233E-007
   31.5281250000000         2.735705496418140E-007
   31.7418750000000         2.815526270015431E-007
   31.9556250000000         2.897190482312573E-007
   32.1693750000000         2.980752768401961E-007
   32.3831250000000         3.066268966986817E-007
   32.5968750000000         3.153789498553593E-007
   32.8106250000000         3.243351756247584E-007
   33.0243750000000         3.334972469775136E-007
   33.2381250000000         3.428641243886725E-007
   33.4518750000000         3.524316596070992E-007
   33.6656250000000         3.621925776808581E-007
   33.8793750000000         3.721369416697475E-007
   34.0931250000000         3.822531582298656E-007
   34.3068750000000         3.925295180707723E-007
   34.5206250000000         4.029561820305152E-007
   34.7343750000000         4.135274336829403E-007
   34.9481250000000         4.242439365191745E-007
   35.1618750000000         4.351146645243132E-007
   35.3756250000000         4.461581419340362E-007
   35.5893750000000         4.574026383829025E-007
   35.8031250000000         4.688850327608685E-007
   36.0168750000000         4.806481820910289E-007
   36.2306250000000         4.927368098528899E-007
   36.4443750000000         5.051921432321437E-007
   36.6581250000000         5.180457599320120E-007
   36.8718750000000         5.313133230585654E-007
   37.0856250000000         5.449890467014376E-007
   37.2993750000000         5.590418219341979E-007
   37.5131250000000         5.734138987570324E-007
   37.7268750000000         5.880228601391301E-007
   37.9406250000000         6.027673254024983E-007
   38.1543750000000         6.175364016348868E-007
   38.3681250000000         6.322224006481651E-007
   38.5818750000000         6.467358013241201E-007
   38.7956250000000         6.610209411609806E-007
   39.0093750000000         6.750705320692702E-007
   39.2231250000000         6.889368909542837E-007
   39.4368750000000         7.027378162744936E-007
   39.6506250000000         7.166553607388524E-007
   39.8643750000000         7.309263563310478E-007
   40.0781250000000         7.458244050431576E-007
   40.2918750000000         7.616340879933383E-007
   40.5056250000000         7.786192577600674E-007
   40.7193750000000         7.969883303797467E-007
   40.9331250000000         8.168603399548214E-007
   41.1468750000000         8.382360185064837E-007
   41.3606250000000         8.609781982789317E-007
   41.5743750000000         8.848053396502784E-007
   41.7881250000000         9.093009393300232E-007
   42.0018750000000         9.339400423465160E-007
   42.2156250000000         9.581321804257927E-007
   42.4293750000000         9.812779934484073E-007
   42.6431250000000         1.002834786222979E-006
   42.8568750000000         1.022384596479992E-006
   43.0706250000000         1.039697253714099E-006
   43.2843750000000         1.054780587246185E-006
   43.4981250000000         1.067910542829357E-006
   43.7118750000000         1.079635506531489E-006
   43.9256250000000         1.090751531227312E-006
   44.1393750000000         1.102248208400932E-006
   44.3531250000000         1.115228310494837E-006
   44.5668750000000         1.130807664043593E-006
   44.7806250000000         1.150004577731488E-006
   44.9943750000000         1.173630137531072E-006
   45.2081250000000         1.202191469042433E-006
   45.4218750000000         1.235819446193916E-006
   45.6356250000000         1.274230252395482E-006
   45.8493750000000         1.316726825824892E-006
   46.0631250000000         1.362241864467183E-006
   46.2768750000000         1.409419229466301E-006
   46.4906250000000         1.456725848395201E-006
   46.7043750000000         1.502582240497551E-006
   46.9181250000000         1.545497136312068E-006
   47.1318750000000         1.584190823385401E-006
   47.3456250000000         1.617693063759742E-006
   47.5593750000000         1.645404696931547E-006
   47.7731250000000         1.667117058778619E-006
   47.9868750000000         1.682989534373154E-006
   48.2006250000000         1.693492104068210E-006
   48.4143750000000         1.699325679475159E-006
   48.6281250000000         1.701337373514349E-006
   48.8418750000000         1.700449737056978E-006
   49.0556250000000         1.697621793427094E-006
   49.2693750000000         1.693855168376184E-006
   49.4831250000000         1.690250955487071E-006
   49.6968750000000         1.688112888806553E-006
   49.9106250000000         1.689081096453718E-006
   50.1243750000000         1.695269750240119E-006
   50.3381250000000         1.709373086462831E-006
   50.5518750000000         1.734699352961654E-006
   50.7656250000000         1.775092786413257E-006
   50.9793750000000         1.834710818404886E-006
   51.1931250000000         1.917637699806068E-006
   51.4068750000000         2.027336089608698E-006
   51.6206250000000         2.165963374577306E-006
   51.8343750000000         2.333607132273391E-006
   52.0481250000000         2.527520984810259E-006
   52.2618750000000         2.741464374075439E-006
   52.4756250000000         2.965263634781865E-006
   52.6893750000000         3.184713602390425E-006
   52.9031250000000         3.381926145971855E-006
   53.1168750000000         3.536203033501216E-006
   53.3306250000000         3.625465702150383E-006
   53.5443750000000         3.628216046347521E-006
   53.7581250000000         3.525934518266422E-006
   53.9718750000000         3.305750784641419E-006
   54.1856250000000         2.963155492866118E-006
   54.3993750000000         2.504467797634157E-006
   54.6131250000000         1.948740621840061E-006
   54.8268750000000         1.328781650619710E-006
   55.0406250000000         6.909983345584409E-007
   55.2543750000000         9.384238504316924E-008
   55.4681250000000        -3.952675419911315E-007
   55.6818750000000        -7.045320209346519E-007
   55.8956250000000        -7.636967180247063E-007
   56.1093750000000        -5.109833902776463E-007
   56.3231250000000         9.946736341956999E-008
   56.5368750000000         1.090269961487589E-006
   56.7506250000000         2.454306447540303E-006
   56.9643750000000         4.149837030179987E-006
   57.1781250000000         6.097936175695634E-006
   57.3918750000000         8.182875184082991E-006
   57.6056250000000         1.025589054180824E-005
   57.8193750000000         1.214252840956850E-005
   58.0331250000000         1.365345462052760E-005
   58.2468750000000         1.459828867254737E-005
   58.4606250000000         1.480168699824133E-005
   58.6743750000000         1.412059616857832E-005
   58.8881250000000         1.246135207360234E-005
   59.1018750000000         9.795145540650141E-006
   59.3156250000000         6.170331795490049E-006
   59.5293750000000         1.720145919792405E-006
   59.7431250000000        -3.335396123216178E-006
   59.9568750000000        -8.694288022149149E-006
   60.1706250000000        -1.398444183561192E-005
   60.3843750000000        -1.878261345424718E-005
   60.5981250000000        -2.263967624595466E-005
   60.8118750000000        -2.511101252897928E-005
   61.0256250000000        -2.579028251807349E-005
   61.2393750000000        -2.434441664443243E-005
   61.4531250000000        -2.054739805364085E-005
   61.6668750000000        -1.431028633703362E-005
   61.8806250000000        -5.704997430008873E-006
   62.0943750000000         5.020399676984317E-006
   62.3081250000000         1.743669333194814E-005
   62.5218750000000         3.094011085763730E-005
   62.7356250000000         4.477106775811640E-005
   62.9493750000000         5.804494888039081E-005
   63.1631250000000         6.979403739211046E-005
   63.3768750000000         7.901898938787334E-005
   63.5906250000000         8.474760707292082E-005
   63.8043750000000         8.609812702040286E-005
   64.0181250000000         8.234383761567011E-005
   64.2318750000000         7.297558673434423E-005
   64.4456250000000         5.775864227319778E-005
   64.6593750000000         3.678042133797409E-005
   64.8731250000000         1.048579982888022E-005
   65.0868750000000        -2.030295895938509E-005
   65.3006250000000        -5.438417218250952E-005
   65.5143750000000        -9.019456191347958E-005
   65.7281250000000        -1.258482379677517E-004
   65.9418750000000        -1.591973819043157E-004
   66.1556250000000        -1.879143162861921E-004
   66.3693750000000        -2.095936861087060E-004
   66.5831250000000        -2.218724296227084E-004
   66.7968750000000        -2.225640884099263E-004
   67.0106250000000        -2.098028294475577E-004
   67.2243750000000        -1.821913694050642E-004
   67.4381250000000        -1.389458661676580E-004
   67.6518750000000        -8.002985503754497E-005
   67.8656250000000        -6.268552509092789E-006
   68.0793750000000         8.056556659573264E-005
   68.2931250000000         1.777049871595716E-004
   68.5068750000000         2.813856709826429E-004
   68.7206250000000         3.868991985481095E-004
   68.9343750000000         4.887040249325846E-004
   69.1481250000000         5.805988462137400E-004
   69.3618750000000         6.559579725019056E-004
   69.5756250000000         7.080250022917139E-004
   69.7893750000000         7.302571515472837E-004
   70.0031250000000         7.167085218365227E-004
   70.2168750000000         6.624366478291438E-004
   70.4306250000000         5.639131246940589E-004
   70.6443750000000         4.194162672423005E-004
   70.8581250000000         2.293818685067166E-004
   71.0718750000000        -3.312556272629683E-006
   71.2856250000000        -2.731539525975474E-004
   71.4993750000000        -5.719120584921093E-004
   71.7131250000000        -8.886879124077788E-004
   71.9268750000000        -1.210105448843077E-003
   72.1406250000000        -1.520652739601326E-003
   72.3543750000000        -1.803172124473779E-003
   72.5681250000000        -2.039490559457733E-003
   72.7818750000000        -2.211173414205049E-003
   72.9956250000000        -2.300377131151663E-003
   73.2093750000000        -2.290769083271510E-003
   73.4231250000000        -2.168477080862534E-003
   73.6368750000000        -1.923026674683685E-003
   73.8506250000000        -1.548222000146911E-003
   74.0643750000000        -1.042925622669672E-003
   74.2781250000000        -4.116947800196693E-004
   74.4918750000000         3.347644477565294E-004
   74.7056250000000         1.179357321762141E-003
   74.9193750000000         2.098599281594268E-003
   75.1331250000000         3.062868328266599E-003
   75.3468750000000         4.036915450813568E-003
   75.5606250000000         4.980626714869419E-003
   75.7743750000000         5.850019789539064E-003
   75.9881250000000         6.598447404709122E-003
   76.2018750000000         7.177970991430622E-003
   76.4156250000000         7.540859990775348E-003
   76.6293750000000         7.641166368153789E-003
   76.8431250000000         7.436319989561883E-003
   77.0568750000000         6.888688845276823E-003
   77.2706250000000         5.967048676025077E-003
   77.4843750000000         4.647909289969845E-003
   77.6981250000000         2.916649581162428E-003
   77.9118750000000         7.684197128215837E-004
   78.1256250000000        -1.791223211862069E-003
   78.3393750000000        -4.745970770568443E-003
   78.5531250000000        -8.068725366245264E-003
   78.7668750000000        -1.172187432003576E-002
   78.9806250000000        -1.565787164023865E-002
   79.1943750000000        -1.982011393834143E-002
   79.4081250000000        -2.414408842844281E-002
   79.6218750000000        -2.855876335464066E-002
   79.8356250000000        -3.298818470025516E-002
   80.0493750000000        -3.735323773905596E-002
   80.2631250000000        -4.157352793143958E-002
   80.4768750000000        -4.556933283990303E-002
   80.6906250000000        -4.926357509486966E-002
   80.9043750000000        -5.258376591833704E-002
   81.1181250000000        -5.546386923428066E-002
   81.3318750000000        -5.784603788950365E-002
   81.5456250000000        -5.968217591719492E-002
   81.7593750000000        -6.093528405659491E-002
   81.9731250000000        -6.158054987457499E-002
   82.1868750000000        -6.160614881461301E-002
   82.4006250000000        -6.101372833194062E-002
   82.6143750000000        -5.981855396663407E-002
   82.8281250000000        -5.804930375174622E-002
   83.0418750000000        -5.574750571581165E-002
   83.2556250000000        -5.296662234052485E-002
   83.4693750000000        -4.977079554278358E-002
   83.6831250000000        -4.623327586990203E-002
   83.8968750000000        -4.243456986461216E-002
   84.1106250000000        -3.846034964425870E-002
   84.3243750000000        -3.439917826143178E-002
   84.5381250000000        -3.034011294468298E-002
   84.7518750000000        -2.637025541085117E-002
   84.9656250000000        -2.257232365301737E-002
   85.1793750000000        -1.902232253244803E-002
   85.3931250000000        -1.578739079546481E-002
   85.6068750000000        -1.292389954636305E-002
   85.8206250000000        -1.047587160306256E-002
   86.0343750000000        -8.473782549062472E-003
   86.2481250000000        -6.933792829971921E-003
   86.4618750000000        -5.857446236001615E-003
   86.6756250000000        -5.231854022107104E-003
   86.8893750000000        -5.030366336505067E-003
   87.1031250000000        -5.213714255877253E-003
   87.3168750000000        -5.731587337962214E-003
   87.5306250000000        -6.524594014195222E-003
   87.7443750000000        -7.526536168662942E-003
   87.9581250000000        -8.666915651897734E-003
   88.1718750000000        -9.873579939997280E-003
   88.3856250000000        -1.107540722940148E-002
   88.5993750000000        -1.220492835970236E-002
   88.8131250000000        -1.320078430835776E-002
   89.0268750000000        -1.400992363789323E-002
   89.2406250000000        -1.458945403763785E-002
   89.4543750000000        -1.490807563619110E-002
   89.6681250000000        -1.494704053802717E-002
   89.8818750000000        -1.470060237282252E-002
   90.0956250000000        -1.417594072812330E-002
   90.3093750000000        -1.339256726259477E-002
   90.5231250000000        -1.238124211409540E-002
   90.7368750000000        -1.118244995948865E-002
   90.9506250000000        -9.844503818667858E-003
   91.1643750000000        -8.421360564422534E-003
   91.3781250000000        -6.970244356010923E-003
   91.5918750000000        -5.549182259329309E-003
   91.8056250000000        -4.214559730640405E-003
   92.0193750000000        -3.018802206416682E-003
   92.2331250000000        -2.008282759679147E-003
   92.4468750000000        -1.221544879208061E-003
   92.6606250000000        -6.879143506375128E-004
   92.8743750000000        -4.265556256052708E-004
   93.0881250000000        -4.460068002843005E-004
   93.3018750000000        -7.442043827888408E-004
   93.5156250000000        -1.308985512992575E-003
   93.7293750000000        -2.119032367326988E-003
   93.9431250000000        -3.145202292926288E-003
   94.1568750000000        -4.352168865851928E-003
   94.3706250000000        -5.700284530269565E-003
   94.5843750000000        -7.147565543141243E-003
   94.7981250000000        -8.651695186974579E-003
   95.0118750000000        -1.017194191853825E-002
   95.2256250000000        -1.167089529888589E-002
   95.4393750000000        -1.311593390334523E-002
   95.6531250000000        -1.448035535142613E-002
   95.8668750000000        -1.574411827327574E-002
   96.0806250000000        -1.689416836791788E-002
   96.2943750000000        -1.792434447316049E-002
   96.5081250000000        -1.883488442910319E-002
   96.7218750000000        -1.963157313181241E-002
   96.9356250000000        -2.032459525876015E-002
   97.1493750000000        -2.092717155919752E-002
   97.3631250000000        -2.145406940313654E-002
   97.5768750000000        -2.192008479622501E-002
   97.7906250000000        -2.233859392013704E-002
   98.0043750000000        -2.272026739779091E-002
   98.2181250000000        -2.307203018333614E-002
   98.4318750000000        -2.339633482000651E-002
   98.6456250000000        -2.369079664942294E-002
   98.8593750000000        -2.394821747198968E-002
   99.0731250000000        -2.415700038991330E-002
   99.2868750000000        -2.430193444525700E-002
   99.5006250000000        -2.436530454885786E-002
   99.7143750000000        -2.432826138382750E-002
   99.9281250000000        -2.417236864246652E-002
   100.141875000000        -2.388123212110499E-002
   100.355625000000        -2.344210762736979E-002
   100.569375000000        -2.284738285417393E-002
   100.783125000000        -2.209583255567640E-002
   100.996875000000        -2.119355642705883E-002
   101.210625000000        -2.015452464027176E-002
   101.424375000000        -1.900067632697166E-002
   101.638125000000        -1.776154046554818E-002
   101.851875000000        -1.647337542972396E-002
   102.065625000000        -1.517785151910259E-002
   102.279375000000        -1.392032862254587E-002
   102.493125000000        -1.274780721416089E-002
   102.706875000000        -1.170665361992904E-002
   102.920625000000        -1.084021849125433E-002
   103.134375000000        -1.018647943155546E-002
   103.348125000000        -9.775843755418180E-003
   103.561875000000        -9.629244762016856E-003
   103.775625000000        -9.756654415748545E-003
   103.989375000000        -1.015611712774783E-002
   104.203125000000        -1.081338406658062E-002
   104.416875000000        -1.170219620128437E-002
   104.630625000000        -1.278522863233247E-002
   104.844375000000        -1.401567060285866E-002
   105.058125000000        -1.533937708859998E-002
   105.271875000000        -1.669749138553305E-002
   105.485625000000        -1.802940601438700E-002
   105.699375000000        -1.927590377336463E-002
   105.913125000000        -2.038230383630950E-002
   106.126875000000        -2.130143091460118E-002
   106.340625000000        -2.199622960713644E-002
   106.554375000000        -2.244186141171486E-002
   106.768125000000        -2.262714798882743E-002
   106.981875000000        -2.255525993746296E-002
   107.195625000000        -2.224359364199829E-002
   107.409375000000        -2.172282715211032E-002
   107.623125000000        -2.103519657439579E-002
   107.836875000000        -2.023208382084640E-002
   108.050625000000        -1.937105145497706E-002
   108.264375000000        -1.851249765833209E-002
   108.478125000000        -1.771613127562758E-002
   108.691875000000        -1.703748137672127E-002
   108.905625000000        -1.652465648862323E-002
   109.119375000000        -1.621555521556484E-002
   109.333125000000        -1.613570297832255E-002
   109.546875000000        -1.629685063624007E-002
   109.760625000000        -1.669642226409516E-002
   109.974375000000        -1.731784453001461E-002
   110.188125000000        -1.813173266516334E-002
   110.401875000000        -1.909785189163358E-002
   110.615625000000        -2.016772231123120E-002
   110.829375000000        -2.128769326123511E-002
   111.043125000000        -2.240228302399947E-002
   111.256875000000        -2.345756371617051E-002
   111.470625000000        -2.440437035735608E-002
   111.684375000000        -2.520112760080932E-002
   111.898125000000        -2.581611635357806E-002
   112.111875000000        -2.622904342377960E-002
   112.325625000000        -2.643182741248504E-002
   112.539375000000        -2.642856964498556E-002
   112.753125000000        -2.623473593884874E-002
   112.966875000000        -2.587562927117111E-002
   113.180625000000        -2.538428099839336E-002
   113.394375000000        -2.479892578963178E-002
   113.608125000000        -2.416025023607789E-002
   113.821875000000        -2.350861555648045E-002
   114.035625000000        -2.288145039851227E-002
   114.249375000000        -2.231099104177605E-002
   114.463125000000        -2.182251502443307E-002
   114.676875000000        -2.143317296417959E-002
   114.890625000000        -2.115147547044753E-002
   115.104375000000        -2.097744134475701E-002
   115.318125000000        -2.090336368379034E-002
   115.531875000000        -2.091510581293391E-002
   115.745625000000        -2.099380250294924E-002
   115.959375000000        -2.111781625837562E-002
   116.173125000000        -2.126478530152749E-002
   116.386875000000        -2.141359987013894E-002
   116.600625000000        -2.154615619803134E-002
   116.814375000000        -2.164876164741521E-002
   117.028125000000        -2.171309762699043E-002
   117.241875000000        -2.173668621185787E-002
   117.455625000000        -2.172284841596723E-002
   117.669375000000        -2.168018336285021E-002
   117.883125000000        -2.162163482361050E-002
   118.096875000000        -2.156324184160372E-002
   118.310625000000        -2.152269120076927E-002
   118.524375000000        -2.151779990986281E-002
   118.738125000000        -2.156505518668339E-002
   118.951875000000        -2.167832809922694E-002
   119.165625000000        -2.186785640219475E-002
   119.379375000000        -2.213956429268781E-002
   119.593125000000        -2.249475444484639E-002
   119.806875000000        -2.293017372848571E-002
   120.020625000000        -2.343842148151827E-002
   120.234375000000        -2.400864089123813E-002
   120.448125000000        -2.462741230020011E-002
   120.661875000000        -2.527975380271138E-002
   120.875625000000        -2.595013027610959E-002
   121.089375000000        -2.662337709350334E-002
   121.303125000000        -2.728545845465074E-002
   121.516875000000        -2.792400105982105E-002
   121.730625000000        -2.852856964107549E-002
   121.944375000000        -2.909067914814329E-002
   122.158125000000        -2.960356647097613E-002
   122.371875000000        -3.006176983598809E-002
   122.585625000000        -3.046058409752482E-002
   122.799375000000        -3.079547321584589E-002
   123.013125000000        -3.106152607749334E-002
   123.226875000000        -3.125303803587057E-002
   123.440625000000        -3.136328847616909E-002
   123.654375000000        -3.138456543364925E-002
   123.868125000000        -3.130846355688671E-002