  -1.60312500000000         4.868622453784250E-021
  -1.38937500000000         3.137134038820143E-018
  -1.17562500000000         2.601711018572996E-017
 -0.961875000000000         1.315578825294530E-016
 -0.748125000000000         5.161380399103591E-016
 -0.534375000000000         1.666284637116220E-015
 -0.320625000000000         4.478867578031044E-015
 -0.106875000000000         9.933115647925784E-015
  0.106875000000000         1.749587792557497E-014
  0.320625000000000         2.125539129374370E-014
  0.534375000000000         3.191994540027636E-015
  0.748125000000000        -7.606696439622554E-014
  0.961875000000000        -2.877204931194230E-013
   1.17562500000000        -7.447576433453563E-013
   1.38937500000000        -1.609878697223372E-012
   1.60312500000000        -3.100257689352055E-012
   1.81687500000000        -5.488466616199586E-012
   2.03062500000000        -9.099155007557279E-012
   2.24437500000000        -1.430096403184033E-011
   2.45812500000000        -2.149427563863511E-011
   2.67187500000000        -3.109485564515870E-011
   2.88562500000000        -4.351442484256745E-011
   3.09937500000000        -5.913954620011546E-011
   3.31312500000000        -7.831018069537931E-011
   3.52687500000000        -1.013006219283936E-010
   3.74062500000000        -1.283039185840623E-010
   3.95437500000000        -1.594222135748861E-010
   4.16812500000000        -1.946646264759842E-010
   4.38187500000000        -2.339529702285713E-010
   4.59562500000000        -2.771356077245821E-010
   4.80937500000000        -3.240081290955636E-010
   5.02312500000000        -3.743389772655136E-010
   5.23687500000000        -4.278968808501048E-010
   5.45062500000000        -4.844757993670321E-010
   5.66437500000000        -5.439141958433819E-010
   5.87812500000000        -6.061053212671577E-010
   6.09187500000000        -6.709954180318700E-010
   6.30562500000000        -7.385692062967785E-010
   6.51937500000000        -8.088244022181464E-010
   6.73312500000000        -8.817377190367134E-010
   6.94687500000000        -9.572273421094509E-010
   7.16062500000000        -1.035117281335594E-009
   7.37437500000000        -1.115110972727738E-009
   7.58812500000000        -1.196779466559899E-009
   7.80187500000000        -1.279566737451296E-009
   8.01562500000000        -1.362814619319981E-009
   8.22937500000000        -1.445804881166121E-009
   8.44312500000000        -1.527812871527274E-009
   8.65687500000000        -1.608165580293771E-009
   8.87062500000000        -1.686295324654321E-009
   9.08437500000000        -1.761779822227696E-009
   9.29812500000000        -1.834361772940754E-009
   9.51187500000000        -1.903943876252619E-009
   9.72562500000000        -1.970559503595725E-009
   9.93937500000000        -2.034323492264426E-009
   10.1531250000000        -2.095371247096382E-009
   10.3668750000000        -2.153797317548028E-009
   10.5806250000000        -2.209604760664878E-009
   10.7943750000000        -2.262675173581439E-009
   11.0081250000000        -2.312767034846182E-009
   11.2218750000000        -2.359543559374281E-009
   11.4356250000000        -2.402626729277743E-009
   11.6493750000000        -2.441669146405982E-009
   11.8631250000000        -2.476430427915082E-009
   12.0768750000000        -2.506845243987197E-009
   12.2906250000000        -2.533068425749519E-009
   12.5043750000000        -2.555488027919111E-009
   12.7181250000000        -2.574701308365843E-009
   12.9318750000000        -2.591455322032611E-009
   13.1456250000000        -2.606560597770918E-009
   13.3593750000000        -2.620789522577431E-009
   13.5731250000000        -2.634776621211050E-009
   13.7868750000000        -2.648936078886204E-009
   14.0006250000000        -2.663409828852231E-009
   14.2143750000000        -2.678054836984020E-009
   14.4281250000000        -2.692471029917388E-009
   14.6418750000000        -2.706065809487941E-009
   14.8556250000000        -2.718145454220168E-009
   15.0693750000000        -2.728017954101809E-009
   15.2831250000000        -2.735092804472806E-009
   15.4968750000000        -2.738964088554577E-009
   15.7106250000000        -2.739466091627062E-009
   15.9243750000000        -2.736696794974937E-009
   16.1381250000000        -2.731009233455666E-009
   16.3518750000000        -2.722976077380601E-009
   16.5656250000000        -2.713336388214878E-009
   16.7793750000000        -2.702934516677667E-009
   16.9931250000000        -2.692660165247683E-009
   17.2068750000000        -2.683397312460757E-009
   17.4206250000000        -2.675985028690655E-009
   17.6343750000000        -2.671190357537972E-009
   17.8481250000000        -2.669691004860198E-009
   18.0618750000000        -2.672062637896606E-009
   18.2756250000000        -2.678767746343089E-009
   18.4893750000000        -2.690142135648938E-009
   18.7031250000000        -2.706378693679701E-009
   18.9168750000000        -2.727510946449700E-009
   19.1306250000000        -2.753399611370696E-009
   19.3443750000000        -2.783727580796197E-009
   19.5581250000000        -2.818007363379078E-009
   19.7718750000000        -2.855603646948026E-009
   19.9856250000000        -2.895770560992985E-009
   20.1993750000000        -2.937700529260728E-009
   20.4131250000000        -2.980578290050323E-009
   20.6268750000000        -3.023632810073096E-009
   20.8406250000000        -3.066180071612105E-009
   21.0543750000000        -3.107650543931654E-009
   21.2681250000000        -3.147598887265025E-009
   21.4818750000000        -3.185697071599309E-009
   21.6956250000000        -3.221714895317673E-009
   21.9093750000000        -3.255495009709837E-009
   22.1231250000000        -3.286930154129430E-009
   22.3368750000000        -3.315949180374769E-009
   22.5506250000000        -3.342516392906363E-009
   22.7643750000000        -3.366644109660217E-009
   22.9781250000000        -3.388414796141756E-009
   23.1918750000000        -3.408005925318091E-009
   23.4056250000000        -3.425708461319822E-009
   23.6193750000000        -3.441930162303177E-009
   23.8331250000000        -3.457177579221091E-009
   24.0468750000000        -3.472013666389655E-009
   24.2606250000000        -3.486994781777611E-009
   24.4743750000000        -3.502594562971902E-009
   24.6881250000000        -3.519126274474108E-009
   24.9018750000000        -3.536678157388129E-009
   25.1156250000000        -3.555074477296598E-009
   25.3293750000000        -3.573872375928498E-009
   25.5431250000000        -3.592398721262707E-009
   25.7568750000000        -3.609823927399265E-009
   25.9706250000000        -3.625262916564876E-009
   26.1843750000000        -3.637887315704947E-009
   26.3981250000000        -3.647029058764881E-009
   26.6118750000000        -3.652254999402166E-009
   26.8256250000000        -3.653394841187622E-009
   27.0393750000000        -3.650511870932072E-009
   27.2531250000000        -3.643814478435347E-009
   27.4668750000000        -3.633516639979019E-009
   27.6806250000000        -3.619667476147114E-009
   27.8943750000000        -3.601979445454751E-009
   28.1081250000000        -3.579688812703471E-009
   28.3218750000000        -3.551486099890838E-009
   28.5356250000000        -3.515549197766443E-009
   28.7493750000000        -3.469701025807767E-009
   28.9631250000000        -3.411697984113460E-009
   29.1768750000000        -3.339634432221943E-009
   29.3906250000000        -3.252424429125421E-009
   29.6043750000000        -3.150297424898223E-009
   29.8181250000000        -3.035227011039233E-009
   30.0318750000000        -2.911198272243956E-009
   30.2456250000000        -2.784220274311793E-009
   30.4593750000000        -2.662007684680910E-009
   30.6731250000000        -2.553287488143545E-009
   30.8868750000000        -2.466736323383845E-009
   31.1006250000000        -2.409617341137269E-009
   31.3143750000000        -2.386253696100175E-009
   31.5281250000000        -2.396539759522221E-009
   31.7418750000000        -2.434740444634981E-009
   31.9556250000000        -2.488849851911077E-009
   32.1693750000000        -2.540762040102289E-009
   32.3831250000000        -2.567442762208784E-009
   32.5968750000000        -2.543179841927955E-009
   32.8106250000000        -2.442836472533347E-009
   33.0243750000000        -2.245852911437495E-009
   33.2381250000000        -1.940561468822094E-009
   33.4518750000000        -1.528221318649566E-009
   33.6656250000000        -1.026080413406868E-009
   33.8793750000000        -4.687585585439137E-010
   34.0931250000000         9.266109313503692E-011
   34.3068750000000         5.942317940829799E-010
   34.5206250000000         9.655149128245241E-010
   34.7343750000000         1.138398077053237E-009
   34.9481250000000         1.057591805674249E-009
   35.1618750000000         6.916190566436283E-010
   35.3756250000000         4.278233289772574E-011
   35.5893750000000        -8.455724868495843E-010
   35.8031250000000        -1.886126730899491E-009
   36.0168750000000        -2.950321730411447E-009
   36.2306250000000        -3.877523514364517E-009
   36.4443750000000        -4.490612890845909E-009
   36.6581250000000        -4.617070518231725E-009
   36.8718750000000        -4.113668972855128E-009
   37.0856250000000        -2.892022059723889E-009
   37.2993750000000        -9.416186834947560E-010
   37.5131250000000         1.653286920477822E-009
   37.7268750000000         4.706349522208335E-009
   37.9406250000000         7.934072744081535E-009
   38.1543750000000         1.097450927017441E-008
   38.3681250000000         1.341961291527797E-008
   38.5818750000000         1.485929495651309E-008
   38.7956250000000         1.493338168558769E-008
   39.0093750000000         1.338604488972973E-008
   39.2231250000000         1.011613194247459E-008
   39.4368750000000         5.216375525548979E-009
   39.6506250000000        -1.005138221545754E-009
   39.8643750000000        -8.026564699705211E-009
   40.0781250000000        -1.514013718106196E-008
   40.2918750000000        -2.150661727998677E-008
   40.5056250000000        -2.623353647423194E-008
   40.7193750000000        -2.847118051215318E-008
   40.9331250000000        -2.751741115027760E-008
   41.1468750000000        -2.292031279957124E-008
   41.3606250000000        -1.456661616486916E-008
   41.5743750000000        -2.744111629907045E-009
   41.7881250000000         1.183210210465464E-008
   42.0018750000000         2.803676295028054E-008
   42.2156250000000         4.439822286566184E-008
   42.4293750000000         5.920741680635370E-008
   42.6431250000000         7.066566763793065E-008
   42.8568750000000         7.706033221021589E-008
   43.0706250000000         7.695342760562477E-008
   43.2843750000000         6.936570634734175E-008
   43.4981250000000         5.393749366851258E-008
   43.7118750000000         3.104813516738823E-008
   43.9256250000000         1.878142055167891E-009
   44.1393750000000        -3.159806474010789E-008
   44.3531250000000        -6.669578619041316E-008
   44.5668750000000        -1.001809527632840E-007
   44.7806250000000        -1.285026083560418E-007
   44.9943750000000        -1.480846041766712E-007
   45.2081250000000        -1.556578537255060E-007
   45.4218750000000        -1.486090471331430E-007
   45.6356250000000        -1.253175182368383E-007
   45.8493750000000        -8.544938910700432E-008
   46.0631250000000        -3.017754246527708E-008
   46.2768750000000         3.770228993274570E-008
   46.4906250000000         1.137847318880141E-007
   46.7043750000000         1.922156545828107E-007
   46.9181250000000         2.660094291977275E-007
   47.1318750000000         3.275190164193054E-007
   47.3456250000000         3.690412047836930E-007
   47.5593750000000         3.835240163022056E-007
   47.7731250000000         3.653280639039096E-007
   47.9868750000000         3.109799632385696E-007
   48.2006250000000         2.198454877371623E-007
   48.4143750000000         9.464480802073710E-008
   48.6281250000000        -5.826647269021332E-008
   48.8418750000000        -2.289174084238469E-007
   49.0556250000000        -4.040918281694742E-007
   49.2693750000000        -5.680709284118203E-007
   49.4831250000000        -7.037371304142245E-007
   49.6968750000000        -7.939894500655589E-007
   49.9106250000000        -8.233805475100899E-007
   50.1243750000000        -7.798481523687017E-007
   50.3381250000000        -6.563832887690754E-007
   50.5518750000000        -4.524592161660213E-007
   50.7656250000000        -1.750422265375145E-007
   50.9793750000000         1.609788018924850E-007
   51.1931250000000         5.330717831287915E-007
   51.4068750000000         9.121233124679380E-007
   51.6206250000000         1.264287055311576E-006
   51.8343750000000         1.553542974371801E-006
   52.0481250000000         1.744809304551875E-006
   52.2618750000000         1.807372520449489E-006
   52.4756250000000         1.718338619757146E-006
   52.6893750000000         1.465770301113123E-006
   52.9031250000000         1.051165908391388E-006
   53.1168750000000         4.909616956938671E-007
   53.3306250000000        -1.831998968495695E-007
   53.5443750000000        -9.255993406370895E-007
   53.7581250000000        -1.679009625192029E-006
   53.9718750000000        -2.378612859980272E-006
   54.1856250000000        -2.957029889069773E-006
   54.3993750000000        -3.350098762183981E-006
   54.6131250000000        -3.502932252913425E-006
   54.8268750000000        -3.375716291229095E-006
   55.0406250000000        -2.948690093877813E-006
   55.2543750000000        -2.225780659838199E-006
   55.4681250000000        -1.236449800874920E-006
   55.6818750000000        -3.544616765661688E-008
   55.8956250000000         1.299672342596635E-006
   56.1093750000000         2.673183573723580E-006
   56.3231250000000         3.977748522996140E-006
   56.5368750000000         5.102407135344768E-006
   56.7506250000000         5.941412238361827E-006
   56.9643750000000         6.403184846985117E-006
   57.1781250000000         6.418629745122293E-006
   57.3918750000000         5.948074925348550E-006
   57.6056250000000         4.986192243856803E-006
   57.8193750000000         3.564412666647420E-006
   58.0331250000000         1.750554383440385E-006
   58.2468750000000        -3.543828556742285E-007
   58.4606250000000        -2.622060838564368E-006
   58.6743750000000        -4.904859792843830E-006
   58.8881250000000        -7.045536372125435E-006
   59.1018750000000        -8.887738089857170E-006
   59.3156250000000        -1.028656810977379E-005
   59.5293750000000        -1.111840933301477E-005
   59.7431250000000        -1.128930611591448E-005
   59.9568750000000        -1.074135541895877E-005
   60.1706250000000        -9.456759180790057E-006
   60.3843750000000        -7.459413176350361E-006
   60.5981250000000        -4.814128477642860E-006
   60.8118750000000        -1.623773727864478E-006
   61.0256250000000         1.975233316946657E-006
   61.2393750000000         5.818585150860531E-006
   61.4531250000000         9.720400965127039E-006
   61.6668750000000         1.347978807236593E-005
   61.8806250000000         1.688738127749748E-005
   62.0943750000000         1.973177930324303E-005
   62.3081250000000         2.180599435898965E-005
   62.5218750000000         2.291420389097741E-005
   62.7356250000000         2.287920709113841E-005
   62.9493750000000         2.155101173037956E-005
   63.1631250000000         1.881688717618725E-005
   63.3768750000000         1.461300813160883E-005
   63.5906250000000         8.937488141032706E-006
   63.8043750000000         1.864187550569459E-006
   64.0181250000000        -6.443779976950915E-006
   64.2318750000000        -1.572236788208327E-005
   64.4456250000000        -2.559864129010020E-005
   64.6593750000000        -3.558866724172740E-005
   64.8731250000000        -4.510338467621503E-005
   65.0868750000000        -5.346433929067527E-005
   65.3006250000000        -5.993063048862845E-005
   65.5143750000000        -6.373759298929203E-005
   65.7281250000000        -6.414666053191425E-005
   65.9418750000000        -6.050460493408559E-005
   66.1556250000000        -5.230901453121012E-005
   66.3693750000000        -3.927560147964974E-005
   66.5831250000000        -2.140185243534781E-005
   66.7968750000000         9.791919840854595E-007
   67.0106250000000         2.716149476526279E-005
   67.2243750000000         5.605105469251284E-005
   67.4381250000000         8.617858688961003E-005
   67.6518750000000         1.157434267680098E-004
   67.8656250000000         1.426900641048914E-004
   68.0793750000000         1.648161063567798E-004
   68.2931250000000         1.799076134297863E-004
   68.5068750000000         1.858948770690417E-004
   68.7206250000000         1.810191022466603E-004
   68.9343750000000         1.639983556567149E-004
   69.1481250000000         1.341798263574216E-004
   69.3618750000000         9.166509627481990E-005
   69.5756250000000         3.739587193345157E-005
   69.7893750000000        -2.681047958124372E-005
   70.0031250000000        -9.828328339016933E-005
   70.2168750000000        -1.735826251001711E-004
   70.4306250000000        -2.486444597506125E-004
   70.6443750000000        -3.189812943531775E-004
   70.8581250000000        -3.799282898448534E-004
   71.0718750000000        -4.269204588092404E-004
   71.2856250000000        -4.557833749715496E-004
   71.4993750000000        -4.630177916120830E-004
   71.7131250000000        -4.460580274510281E-004
   71.9268750000000        -4.034850381609031E-004
   72.1406250000000        -3.351777295804115E-004
   72.3543750000000        -2.423901227348765E-004
   72.5681250000000        -1.277471554350573E-004
   72.7818750000000         4.842206031224833E-006
   72.9956250000000         1.503497526350132E-004
   73.2093750000000         3.028600928030617E-004
   73.4231250000000         4.558543283794534E-004
   73.6368750000000         6.025258929130747E-004
   73.8506250000000         7.361068879958885E-004
   74.0643750000000         8.501828314940111E-004
   74.2781250000000         9.389751435820118E-004
   74.4918750000000         9.975738201849248E-004
   74.7056250000000         1.022107297833781E-003
   74.9193750000000         1.009842083808129E-003
   75.1331250000000         9.592107989513648E-004
   75.3468750000000         8.697732971448276E-004
   75.5606250000000         7.421209291659139E-004
   75.7743750000000         5.777383118891844E-004
   75.9881250000000         3.788397559181772E-004
   76.2018750000000         1.481985510013855E-004
   76.4156250000000        -1.110134650756155E-004
   76.6293750000000        -3.953611171698017E-004
   76.8431250000000        -7.012448756703989E-004
   77.0568750000000        -1.024957557619268E-003
   77.2706250000000        -1.362698150456842E-003
   77.4843750000000        -1.710547557363393E-003
   77.6981250000000        -2.064415832387404E-003
   77.9118750000000        -2.419974120103032E-003
   78.1256250000000        -2.772586656289323E-003
   78.3393750000000        -3.117258595820566E-003
   78.5531250000000        -3.448614063380844E-003
   78.7668750000000        -3.760915808641646E-003
   78.9806250000000        -4.048133499275776E-003
   79.1943750000000        -4.304062453261628E-003
   79.4081250000000        -4.522489042999634E-003
   79.6218750000000        -4.697393684641433E-003
   79.8356250000000        -4.823177823251005E-003
   80.0493750000000        -4.894898125252400E-003
   80.2631250000000        -4.908489550788984E-003
   80.4768750000000        -4.860959287898523E-003
   80.6906250000000        -4.750535685345885E-003
   80.9043750000000        -4.576760126918413E-003
   81.1181250000000        -4.340514877956350E-003
   81.3318750000000        -4.043985797349220E-003
   81.5456250000000        -3.690564849581877E-003
   81.7593750000000        -3.284702947930341E-003
   81.9731250000000        -2.831728223139893E-003
   82.1868750000000        -2.337647849222731E-003
   82.4006250000000        -1.808952724026737E-003
   82.6143750000000        -1.252443436060534E-003
   82.8281250000000        -6.750930934600470E-004
   83.0418750000000        -8.395799143140818E-005
   83.2556250000000         5.138588217303803E-004
   83.4693750000000         1.111192682797318E-003
   83.6831250000000         1.700759508576981E-003
   83.8968750000000         2.275069550651208E-003
   84.1106250000000         2.826332115560692E-003
   84.3243750000000         3.346373764357356E-003
   84.5381250000000         3.826593427065187E-003
   84.7518750000000         4.257976404733745E-003
   84.9656250000000         4.631185402850286E-003
   85.1793750000000         4.936740781949923E-003
   85.3931250000000         5.165294562689492E-003
   85.6068750000000         5.307993987695600E-003
   85.8206250000000         5.356921341160355E-003
   86.0343750000000         5.305588034690828E-003
   86.2481250000000         5.149453449452110E-003
   86.4618750000000         4.886433370467341E-003
   86.6756250000000         4.517359616046110E-003
   86.8893750000000         4.046352029963254E-003
   87.1031250000000         3.481066529092497E-003
   87.3168750000000         2.832788318980489E-003
   87.5306250000000         2.116347412996900E-003
   87.7443750000000         1.349843721139833E-003
   87.9581250000000         5.541805482710358E-004
   88.1718750000000        -2.475824240006564E-004
   88.3856250000000        -1.031033545100538E-003
   88.5993750000000        -1.771336836398281E-003
   88.8131250000000        -2.444239478507183E-003
   89.0268750000000        -3.027108984962693E-003
   89.2406250000000        -3.499946076948242E-003
   89.4543750000000        -3.846318687374796E-003
   89.6681250000000        -4.054165247698296E-003
   89.8818750000000        -4.116421298868163E-003
   90.0956250000000        -4.031432162801298E-003
   90.3093750000000        -3.803125377492495E-003
   90.5231250000000        -3.440929162793938E-003
   90.7368750000000        -2.959436580125532E-003
   90.9506250000000        -2.377828476170352E-003
   91.1643750000000        -1.719080973539938E-003
   91.3781250000000        -1.008994473975472E-003
   91.5918750000000        -2.750902667397344E-004
   91.8056250000000         4.545725739657239E-004
   92.0193750000000         1.152603557917158E-003
   92.2331250000000         1.793453159177951E-003
   92.4468750000000         2.354496043115154E-003
   92.6606250000000         2.816974761718305E-003
   92.8743750000000         3.166760686407444E-003
   93.0881250000000         3.394898022014675E-003
   93.3018750000000         3.497907246203772E-003
   93.5156250000000         3.477835710962924E-003
   93.7293750000000         3.342054889093203E-003
   93.9431250000000         3.102815332069249E-003
   94.1568750000000         2.776581349058883E-003
   94.3706250000000         2.383177294494216E-003
   94.5843750000000         1.944785795213863E-003
   94.7981250000000         1.484844949148153E-003
   95.0118750000000         1.026896236171630E-003
   95.2256250000000         5.934374070199237E-004
   95.4393750000000         2.048348266837701E-004
   95.6531250000000        -1.216524230189646E-004
   95.8668750000000        -3.726889268255587E-004
   96.0806250000000        -5.394788921947002E-004
   96.2943750000000        -6.181497183165761E-004
   96.5081250000000        -6.098819974575326E-004
   96.7218750000000        -5.207769764800453E-004
   96.9356250000000        -3.614656344371422E-004
   97.1493750000000        -1.464769683701901E-004
   97.3631250000000         1.066038689321390E-004
   97.5768750000000         3.781450094019558E-004
   97.7906250000000         6.475922632470774E-004
   98.0043750000000         8.946483527287214E-004
   98.2181250000000         1.100442545012906E-003
   98.4318750000000         1.248625505102394E-003
   98.6456250000000         1.326327263603649E-003
   98.8593750000000         1.324923054412520E-003
   99.0731250000000         1.240562134699454E-003
   99.2868750000000         1.074428002705200E-003
   99.5006250000000         8.327138915930690E-004
   99.7143750000000         5.263140677541965E-004
   99.9281250000000         1.702482101373081E-004
   100.141875000000        -2.171481302230833E-004
   100.355625000000        -6.152203620841944E-004
   100.569375000000        -1.002121736503122E-003
   100.783125000000        -1.356006144385169E-003
   100.996875000000        -1.656219933992254E-003
   101.210625000000        -1.884427328505103E-003
   101.424375000000        -2.025609507864340E-003
   101.638125000000        -2.068886384916268E-003
   101.851875000000        -2.008121776152091E-003
   102.065625000000        -1.842286089829712E-003
   102.279375000000        -1.575564792372615E-003
   102.493125000000        -1.217214743593728E-003
   102.706875000000        -7.811830941952731E-004
   102.920625000000        -2.855140821380590E-004
   103.134375000000         2.484227424372236E-004
   103.348125000000         7.968438093376420E-004
   103.561875000000         1.334560374865308E-003
   103.775625000000         1.836042378540700E-003
   103.989375000000         2.276496041382157E-003
   104.203125000000         2.632916498565789E-003
   104.416875000000         2.885080019943863E-003
   104.630625000000         3.016443815324023E-003
   104.844375000000         3.014924674375532E-003
   105.058125000000         2.873530574672363E-003
   105.271875000000         2.590821943463115E-003
   105.485625000000         2.171181723358931E-003
   105.699375000000         1.624876177201970E-003
   105.913125000000         9.678919745558942E-004
   106.126875000000         2.215400371600625E-004
   106.340625000000        -5.881767053064001E-004
   106.554375000000        -1.431425861481705E-003
   106.768125000000        -2.275622082036064E-003
   106.981875000000        -3.086689053536910E-003
   107.195625000000        -3.830465504817895E-003
   107.409375000000        -4.474200820437091E-003
   107.623125000000        -4.988074199073508E-003
   107.836875000000        -5.346662205453211E-003
   108.050625000000        -5.530274310161116E-003
   108.264375000000        -5.526075681617266E-003
   108.478125000000        -5.328921853823375E-003
   108.691875000000        -4.941841259287836E-003
   108.905625000000        -4.376118770724075E-003
   109.119375000000        -3.650955547752703E-003
   109.333125000000        -2.792706295741954E-003
   109.546875000000        -1.833722704861848E-003
   109.760625000000        -8.108592102825835E-004
   109.974375000000         2.362779855488874E-004
   110.188125000000         1.267237680099896E-003
   110.401875000000         2.242671998826053E-003
   110.615625000000         3.126206948158725E-003
   110.829375000000         3.886119710967352E-003
   111.043125000000         4.496720036365141E-003
   111.256875000000         4.939354102327749E-003
   111.470625000000         5.202976890197674E-003
   111.684375000000         5.284271193308266E-003
   111.898125000000         5.187325209363366E-003
   112.111875000000         4.922913332161521E-003
   112.325625000000         4.507453400080498E-003
   112.539375000000         3.961735731556629E-003
   112.753125000000         3.309532806037956E-003
   112.966875000000         2.576202228335884E-003
   113.180625000000         1.787389342859130E-003
   113.394375000000         9.679201865225455E-004
   113.608125000000         1.409519284135901E-004
   113.821875000000        -6.725811554938324E-004
   114.035625000000        -1.454219934016548E-003
   114.249375000000        -2.187956058306099E-003
   114.463125000000        -2.859984040434582E-003
   114.676875000000        -3.458304466002880E-003
   114.890625000000        -3.972266267482633E-003
   115.104375000000        -4.392139494477621E-003
   115.318125000000        -4.708803444866903E-003
   115.531875000000        -4.913619014661516E-003
   115.745625000000        -4.998530280768512E-003
   115.959375000000        -4.956411043938767E-003
   116.173125000000        -4.781640290678846E-003
   116.386875000000        -4.470859524537889E-003
   116.600625000000        -4.023837874274822E-003
   116.814375000000        -3.444350663843075E-003
   117.028125000000        -2.740965950193712E-003
   117.241875000000        -1.927632770706400E-003
   117.455625000000        -1.023974872828558E-003
   117.669375000000        -5.521386997056437E-005
   117.883125000000         9.483255535140775E-004
   118.096875000000         1.952141043223871E-003
   118.310625000000         2.918883538102167E-003
   118.524375000000         3.810031465837018E-003
   118.738125000000         4.587812358748398E-003
   118.951875000000         5.217249494142630E-003
   119.165625000000         5.668193978964522E-003
   119.379375000000         5.917196605352171E-003
   119.593125000000         5.949079527955262E-003
   119.806875000000         5.758085055980917E-003
   120.020625000000         5.348506317786749E-003
   120.234375000000         4.734740072183720E-003
   120.448125000000         3.940742656469727E-003
   120.661875000000         2.998912696540464E-003
   120.875625000000         1.948465337112592E-003
   121.089375000000         8.333991093137890E-004
   121.303125000000        -2.998147064070977E-004
   121.516875000000        -1.404671429099474E-003
   121.730625000000        -2.437044474518182E-003
   121.944375000000        -3.357416266588204E-003
   122.158125000000        -4.132790754210179E-003
   122.371875000000        -4.738174368629281E-003
   122.585625000000        -5.157544505916215E-003
   122.799375000000        -5.384261817659336E-003
   123.013125000000        -5.420921776035939E-003
   123.226875000000        -5.278679124818774E-003
   123.440625000000        -4.976113102800576E-003
   123.654375000000        -4.537729309023981E-003
   123.868125000000        -3.992213938569297E-003