  -1.60312500000000         9.243848260530004E-020
  -1.38937500000000         8.555323576803191E-017
  -1.17562500000000         6.345397526751500E-016
 -0.961875000000000         3.187023133687512E-015
 -0.748125000000000         1.284713630288078E-014
 -0.534375000000000         4.360165713986524E-014
 -0.320625000000000         1.274802947065840E-013
 -0.106875000000000         3.265575696383316E-013
  0.106875000000000         7.446343004153488E-013
  0.320625000000000         1.534890360470085E-012
  0.534375000000000         2.901386192508013E-012
  0.748125000000000         5.092759669283827E-012
  0.961875000000000         8.389368964834132E-012
   1.17562500000000         1.307724734662562E-011
   1.38937500000000         1.941339815851963E-011
   1.60312500000000         2.757874573826831E-011
   1.81687500000000         3.763518034828621E-011
   2.03062500000000         4.948137982566903E-011
   2.24437500000000         6.282496993226016E-011
   2.45812500000000         7.717511919335186E-011
   2.67187500000000         9.185797943130338E-011
   2.88562500000000         1.060611536303980E-010
   3.09937500000000         1.188897170062930E-010
   3.31312500000000         1.294560615167831E-010
   3.52687500000000         1.369815753859349E-010
   3.74062500000000         1.408647909004836E-010
   3.95437500000000         1.407404976615624E-010
   4.16812500000000         1.365640135289108E-010
   4.38187500000000         1.285464613631604E-010
   4.59562500000000         1.171603769319621E-010
   4.80937500000000         1.030716120697147E-010
   5.02312500000000         8.700907927036490E-011
   5.23687500000000         6.970176845723835E-011
   5.45062500000000         5.180068273859863E-011
   5.66437500000000         3.379149739376474E-011
   5.87812500000000         1.601712606120202E-011
   6.09187500000000        -1.284964299463688E-012
   6.30562500000000        -1.791526805159582E-011
   6.51937500000000        -3.360125498471474E-011
   6.73312500000000        -4.789589377207702E-011
   6.94687500000000        -6.009625905095816E-011
   7.16062500000000        -6.923080005158567E-011
   7.37437500000000        -7.409208295332242E-011
   7.58812500000000        -7.334597256939833E-011
   7.80187500000000        -6.573494879851746E-011
   8.01562500000000        -5.023998639730457E-011
   8.22937500000000        -2.633811167079039E-011
   8.44312500000000         5.875511384853767E-012
   8.65687500000000         4.554385006052296E-011
   8.87062500000000         9.110571162719815E-011
   9.08437500000000         1.403989428689589E-010
   9.29812500000000         1.908910856041232E-010
   9.51187500000000         2.399905972535170E-010
   9.72562500000000         2.853324579973010E-010
   9.93937500000000         3.251117884708484E-010
   10.1531250000000         3.582683266565942E-010
   10.3668750000000         3.845807206021300E-010
   10.5806250000000         4.046348534931390E-010
   10.7943750000000         4.196274844761569E-010
   11.0081250000000         4.311155492592820E-010
   11.2218750000000         4.406890674805235E-010
   11.4356250000000         4.496753680302507E-010
   11.6493750000000         4.589302848815987E-010
   11.8631250000000         4.687127329350065E-010
   12.0768750000000         4.787425255682718E-010
   12.2906250000000         4.883622588667667E-010
   12.5043750000000         4.968131119634085E-010
   12.7181250000000         5.035628179515459E-010
   12.9318750000000         5.085669477475195E-010
   13.1456250000000         5.124972411144657E-010
   13.3593750000000         5.167504386494042E-010
   13.5731250000000         5.233816009848943E-010
   13.7868750000000         5.348082823245631E-010
   14.0006250000000         5.534579556672094E-010
   14.2143750000000         5.813209781492256E-010
   14.4281250000000         6.195873378473050E-010
   14.6418750000000         6.683519730846586E-010
   14.8556250000000         7.265001210404054E-010
   15.0693750000000         7.917730340479098E-010
   15.2831250000000         8.610408782077536E-010
   15.4968750000000         9.307036419416417E-010
   15.7106250000000         9.971656835026578E-010
   15.9243750000000         1.057319635299556E-009
   16.1381250000000         1.108918211097224E-009
   16.3518750000000         1.150833505471775E-009
   16.5656250000000         1.183088852387433E-009
   16.7793750000000         1.206716700462365E-009
   16.9931250000000         1.223485472421938E-009
   17.2068750000000         1.235495117661695E-009
   17.4206250000000         1.244780342841474E-009
   17.6343750000000         1.252939754393631E-009
   17.8481250000000         1.260929123171677E-009
   18.0618750000000         1.268936839035885E-009
   18.2756250000000         1.276486412104976E-009
   18.4893750000000         1.282659586684355E-009
   18.7031250000000         1.286356345505174E-009
   18.9168750000000         1.286667159805862E-009
   19.1306250000000         1.283134406944366E-009
   19.3443750000000         1.275965202864575E-009
   19.5581250000000         1.266095127559106E-009
   19.7718750000000         1.255133457822006E-009
   19.9856250000000         1.245194296700823E-009
   20.1993750000000         1.238624585519702E-009
   20.4131250000000         1.237735506598849E-009
   20.6268750000000         1.244507771735085E-009
   20.8406250000000         1.260379224575930E-009
   21.0543750000000         1.286108383516274E-009
   21.2681250000000         1.321745728323312E-009
   21.4818750000000         1.366661952487539E-009
   21.6956250000000         1.419676826003216E-009
   21.9093750000000         1.479203647661322E-009
   22.1231250000000         1.543439153454066E-009
   22.3368750000000         1.610507820771287E-009
   22.5506250000000         1.678602961680296E-009
   22.7643750000000         1.746090037195875E-009
   22.9781250000000         1.811568712751649E-009
   23.1918750000000         1.873903730886677E-009
   23.4056250000000         1.932248870111975E-009
   23.6193750000000         1.986016677148559E-009
   23.8331250000000         2.034892982225981E-009
   24.0468750000000         2.078768490361310E-009
   24.2606250000000         2.117759221587706E-009
   24.4743750000000         2.152125432694996E-009
   24.6881250000000         2.182253451441611E-009
   24.9018750000000         2.208640620013872E-009
   25.1156250000000         2.231837616813107E-009
   25.3293750000000         2.252508256637475E-009
   25.5431250000000         2.271405995335516E-009
   25.7568750000000         2.289444250541253E-009
   25.9706250000000         2.307746049172236E-009
   26.1843750000000         2.327688029701227E-009
   26.3981250000000         2.350933405098791E-009
   26.6118750000000         2.379400805017926E-009
   26.8256250000000         2.415161832176802E-009
   27.0393750000000         2.460286175242313E-009
   27.2531250000000         2.516612924745581E-009
   27.4668750000000         2.585440305898443E-009
   27.6806250000000         2.667285398082166E-009
   27.8943750000000         2.761598121189525E-009
   28.1081250000000         2.866624958758887E-009
   28.3218750000000         2.979414998191402E-009
   28.5356250000000         3.095908271299709E-009
   28.7493750000000         3.211333495741667E-009
   28.9631250000000         3.320607150822768E-009
   29.1768750000000         3.418977752466189E-009
   29.3906250000000         3.502615092267869E-009
   29.6043750000000         3.569189799104063E-009
   29.8181250000000         3.618353633703742E-009
   30.0318750000000         3.651978612378039E-009
   30.2456250000000         3.674111239963116E-009
   30.4593750000000         3.690687729965162E-009
   30.6731250000000         3.708855134484547E-009
   30.8868750000000         3.736109833421640E-009
   31.1006250000000         3.779158970177178E-009
   31.3143750000000         3.842782752809653E-009
   31.5281250000000         3.928707310159781E-009
   31.7418750000000         4.034748359856541E-009
   31.9556250000000         4.154328603803080E-009
   32.1693750000000         4.276543199955413E-009
   32.3831250000000         4.386898903693465E-009
   32.5968750000000         4.468741566349287E-009
   32.8106250000000         4.505358002395980E-009
   33.0243750000000         4.482605840370776E-009
   33.2381250000000         4.391812750983035E-009
   33.4518750000000         4.232585322407237E-009
   33.6656250000000         4.015094753381996E-009
   33.8793750000000         3.761350350067365E-009
   34.0931250000000         3.505068216018385E-009
   34.3068750000000         3.289717727000975E-009
   34.5206250000000         3.164601871229209E-009
   34.7343750000000         3.179123752189225E-009
   34.9481250000000         3.375538049278631E-009
   35.1618750000000         3.780979410206331E-009
   35.3756250000000         4.399719060627446E-009
   35.5893750000000         5.206890141371362E-009
   35.8031250000000         6.144905078634405E-009
   36.0168750000000         7.123771289919551E-009
   36.2306250000000         8.026113851481457E-009
   36.4443750000000         8.717257453350763E-009
   36.6581250000000         9.060077052032368E-009
   36.8718750000000         8.933440389996125E-009
   37.0856250000000         8.252556941570940E-009
   37.2993750000000         6.988578285540614E-009
   37.5131250000000         5.184710438377619E-009
   37.7268750000000         2.965783797164732E-009
   37.9406250000000         5.386621583715601E-010
   38.1543750000000        -1.818317438876993E-009
   38.3681250000000        -3.777672989543208E-009
   38.5818750000000        -4.995962416481963E-009
   38.7956250000000        -5.155477387413556E-009
   39.0093750000000        -4.010413286020203E-009
   39.2231250000000        -1.432149429728195E-009
   39.4368750000000         2.552452113652923E-009
   39.6506250000000         7.736011826395700E-009
   39.8643750000000         1.372435952070679E-008
   40.0781250000000         1.995300818596340E-008
   40.2918750000000         2.572796972027609E-008
   40.5056250000000         3.028958742478355E-008
   40.7193750000000         3.289489591508847E-008
   40.9331250000000         3.291091771883310E-008
   41.1468750000000         2.990871657271035E-008
   41.3606250000000         2.374663736860757E-008
   41.5743750000000         1.463059804296464E-008
   41.7881250000000         3.140868490095681E-009
   42.0018750000000        -9.782755713495952E-009
   42.2156250000000        -2.290099641817269E-008
   42.4293750000000        -3.477900751502845E-008
   42.6431250000000        -4.392697962581486E-008
   42.8568750000000        -4.896473905335414E-008
   43.0706250000000        -4.879337810929234E-008
   43.2843750000000        -4.275373233831080E-008
   43.4981250000000        -3.075116459306021E-008
   43.7118750000000        -1.332789453296269E-008
   43.9256250000000         8.331369850225433E-009
   44.1393750000000         3.246783451259143E-008
   44.3531250000000         5.689001508514447E-008
   44.5668750000000         7.917781502165646E-008
   44.7806250000000         9.693011564178845E-008
   44.9943750000000         1.080296123777122E-007
   45.2081250000000         1.108940600416721E-007
   45.4218750000000         1.046821446617193E-007
   45.6356250000000         8.942549932697141E-008
   45.8493750000000         6.606537862054700E-008
   46.0631250000000         3.638346391605772E-008
   46.2768750000000         2.828990631682197E-009
   46.4906250000000        -3.174122529983955E-008
   46.7043750000000        -6.438075388027447E-008
   46.9181250000000        -9.238991807246241E-008
   47.1318750000000        -1.136255903476539E-007
   47.3456250000000        -1.267394620438072E-007
   47.5593750000000        -1.313065096210269E-007
   47.7731250000000        -1.278180363744041E-007
   47.9868750000000        -1.175315404968139E-007
   48.2006250000000        -1.021906345332812E-007
   48.4143750000000        -8.364980935556670E-008
   48.6281250000000        -6.345786798670550E-008
   48.8418750000000        -4.246765125708064E-008
   49.0556250000000        -2.054499194471641E-008
   49.2693750000000         3.554727387867171E-009
   49.4831250000000         3.208965403035098E-008
   49.6968750000000         6.798726342182541E-008
   49.9106250000000         1.142603033107587E-007
   50.1243750000000         1.732292588912458E-007
   50.3381250000000         2.456371319965877E-007
   50.5518750000000         3.297762337053654E-007
   50.7656250000000         4.207702563392708E-007
   50.9793750000000         5.101625670159695E-007
   51.1931250000000         5.859500487988399E-007
   51.4068750000000         6.331689376637561E-007
   51.6206250000000         6.350857544401810E-007
   51.8343750000000         5.749755719059286E-007
   52.0481250000000         4.383879999356570E-007
   52.2618750000000         2.157162108819434E-007
   52.4756250000000        -9.519331016839819E-008
   52.6893750000000        -4.867121978511046E-007
   52.9031250000000        -9.397359828091978E-007
   53.1168750000000        -1.422971173466214E-006
   53.3306250000000        -1.893501851827782E-006
   53.5443750000000        -2.298840609352402E-006
   53.7581250000000        -2.580534576385825E-006
   53.9718750000000        -2.679231121240385E-006
   54.1856250000000        -2.540923299896169E-006
   54.3993750000000        -2.123910521519960E-006
   54.6131250000000        -1.405846211579753E-006
   54.8268750000000        -3.901227966959964E-007
   55.0406250000000         8.892142741164257E-007
   55.2543750000000         2.364811545016287E-006
   55.4681250000000         3.936291056328432E-006
   55.6818750000000         5.473953024391028E-006
   55.8956250000000         6.826098146292997E-006
   56.1093750000000         7.829826360524602E-006
   56.3231250000000         8.324789863455881E-006
   56.5368750000000         8.168998608467753E-006
   56.7506250000000         7.255436606670799E-006
   56.9643750000000         5.527987423159804E-006
   57.1781250000000         2.995024528500936E-006
   57.3918750000000        -2.609738525955949E-007
   57.6056250000000        -4.079258355651357E-006
   57.8193750000000        -8.223229723769207E-006
   58.0331250000000        -1.239010231254640E-005
   58.2468750000000        -1.622786036211212E-005
   58.4606250000000        -1.935888168764634E-005
   58.6743750000000        -2.140891521494790E-005
   58.8881250000000        -2.203946377705232E-005
   59.1018750000000        -2.098110925799561E-005
   59.3156250000000        -1.806498285092965E-005
   59.5293750000000        -1.324947666218667E-005
   59.7431250000000        -6.639441462043298E-006
   59.9568750000000         1.504475725895968E-006
   60.1706250000000         1.076805186859582E-005
   60.3843750000000         2.059812076309919E-005
   60.5981250000000         3.032950191706944E-005
   60.8118750000000         3.922309182707345E-005
   61.0256250000000         4.651301091448935E-005
   61.2393750000000         5.145985906693815E-005
   61.4531250000000         5.340650458335940E-005
   61.6668750000000         5.183247501341273E-005
   61.8806250000000         4.640297007557233E-005
   62.0943750000000         3.700878187138625E-005
   62.3081250000000         2.379396317719013E-005
   62.5218750000000         7.168879308695235E-006
   62.7356250000000        -1.219276009886782E-005
   62.9493750000000        -3.337325230857554E-005
   63.1631250000000        -5.524596868138371E-005
   63.3768750000000        -7.652453605751628E-005
   63.5906250000000        -9.582375951718098E-005
   63.8043750000000        -1.117293521226180E-004
   64.0181250000000        -1.228732035504805E-004
   64.2318750000000        -1.280108030192254E-004
   64.4456250000000        -1.260974981501805E-004
   64.6593750000000        -1.163604653492330E-004
   64.8731250000000        -9.836352582571467E-005
   65.0868750000000        -7.206220164528679E-005
   65.3006250000000        -3.784661827643441E-005
   65.5143750000000         3.430004209386557E-006
   65.7281250000000         5.043947044674215E-005
   65.9418750000000         1.013855242638810E-004
   66.1556250000000         1.540317129370392E-004
   66.3693750000000         2.057522258967668E-004
   66.5831250000000         2.536074082672299E-004
   66.7968750000000         2.944450381223416E-004
   67.0106250000000         3.250274850819036E-004
   67.2243750000000         3.421834973066598E-004
   67.4381250000000         3.429816029319260E-004
   67.6518750000000         3.249200265017288E-004
   67.8656250000000         2.861257347176520E-004
   68.0793750000000         2.255529200016648E-004
   68.2931250000000         1.431691284808534E-004
   68.5068750000000         4.011559095561180E-005
   68.7206250000000        -8.117262596472575E-005
   68.9343750000000        -2.169010384776355E-004
   69.1481250000000        -3.619180190661620E-004
   69.3618750000000        -5.097958947692786E-004
   69.5756250000000        -6.529983086047951E-004
   69.7893750000000        -7.831366416487715E-004
   70.0031250000000        -8.913127577659937E-004
   70.2168750000000        -9.685392237519859E-004
   70.4306250000000        -1.006221878960056E-003
   70.6443750000000        -9.966836435706173E-004
   70.8581250000000        -9.337032477688123E-004
   71.0718750000000        -8.130386029604236E-004
   71.2856250000000        -6.329022305862404E-004
   71.4993750000000        -3.943558268701045E-004
   71.7131250000000        -1.015928597709666E-004
   71.9268750000000         2.379178972440026E-004
   72.1406250000000         6.134489164840089E-004
   72.3543750000000         1.011203718362580E-003
   72.5681250000000         1.414683880559753E-003
   72.7818750000000         1.805227187594483E-003
   72.9956250000000         2.162700642561121E-003
   73.2093750000000         2.466322317925087E-003
   73.4231250000000         2.695577388349154E-003
   73.6368750000000         2.831186749737457E-003
   73.8506250000000         2.856081867306094E-003
   74.0643750000000         2.756337256269229E-003
   74.2781250000000         2.522012464716173E-003
   74.4918750000000         2.147858609036087E-003
   74.7056250000000         1.633850242090559E-003
   74.9193750000000         9.855112881820137E-004
   75.1331250000000         2.140134933746536E-004
   75.3468750000000        -6.639632514043300E-004
   75.5606250000000        -1.626607886432547E-003
   75.7743750000000        -2.647580249640400E-003
   75.9881250000000        -3.696815369073477E-003
   76.2018750000000        -4.741497757297436E-003
   76.4156250000000        -5.747165899197134E-003
   76.6293750000000        -6.678901673028260E-003
   76.8431250000000        -7.502556343614260E-003
   77.0568750000000        -8.185964090786070E-003
   77.2706250000000        -8.700095713355536E-003
   77.4843750000000        -9.020108975801149E-003
   77.6981250000000        -9.126257723791690E-003
   77.9118750000000        -9.004628981888339E-003
   78.1256250000000        -8.647685297169779E-003
   78.3393750000000        -8.054598121168469E-003
   78.5531250000000        -7.231366546723806E-003
   78.7668750000000        -6.190723795490558E-003
   78.9806250000000        -4.951841108577414E-003
   79.1943750000000        -3.539844837013624E-003
   79.4081250000000        -1.985167371216756E-003
   79.6218750000000        -3.227560078879479E-004
   79.8356250000000         1.408834046741928E-003
   80.0493750000000         3.168435474401632E-003
   80.2631250000000         4.913326552064651E-003
   80.4768750000000         6.600324826030728E-003
   80.6906250000000         8.186892245802602E-003
   80.9043750000000         9.632228884621740E-003
   81.1181250000000         1.089833394416011E-002
   81.3318750000000         1.195101404262153E-002
   81.5456250000000         1.276081968832871E-002
   81.7593750000000         1.330389130702641E-002
   81.9731250000000         1.356269627861213E-002
   82.1868750000000         1.352663830014976E-002
   82.4006250000000         1.319252025874160E-002
   82.6143750000000         1.256484195930408E-002
   82.8281250000000         1.165591482746519E-002
   83.0418750000000         1.048577740793522E-002
   83.2556250000000         9.081898374572238E-003
   83.4693750000000         7.478658051700443E-003
   83.6831250000000         5.716605203013845E-003
   83.8968750000000         3.841493028305933E-003
   84.1106250000000         1.903106733114705E-003
   84.3243750000000        -4.609562908172568E-005
   84.5381250000000        -1.952497557090628E-003
   84.7518750000000        -3.762952588445034E-003
   84.9656250000000        -5.426476791124100E-003
   85.1793750000000        -6.895947658941672E-003
   85.3931250000000        -8.129746323454510E-003
   85.6068750000000        -9.093277101084525E-003
   85.8206250000000        -9.760298524409457E-003
   86.0343750000000        -1.011400343155529E-002
   86.2481250000000        -1.014779248578888E-002
   86.4618750000000        -9.865695538747318E-003
   86.6756250000000        -9.282408197639747E-003
   86.8893750000000        -8.422926274186995E-003
   87.1031250000000        -7.321777782434855E-003
   87.3168750000000        -6.021869985798999E-003
   87.5306250000000        -4.572986767559817E-003
   87.7443750000000        -3.029988386543737E-003
   87.9581250000000        -1.450780585939076E-003
   88.1718750000000         1.058677598243892E-004
   88.3856250000000         1.582570425981497E-003
   88.5993750000000         2.925540038066518E-003
   88.8131250000000         4.086680901363007E-003
   89.0268750000000         5.025468180505109E-003
   89.2406250000000         5.710530856074276E-003
   89.4543750000000         6.120867477138308E-003
   89.6681250000000         6.246638723233028E-003
   89.8818750000000         6.089498542338924E-003
   90.0956250000000         5.662445379116623E-003
   90.3093750000000         4.989195892799313E-003
   90.5231250000000         4.103104678660863E-003
   90.7368750000000         3.045673922813261E-003
   90.9506250000000         1.864715727632496E-003
   91.1643750000000         6.122461840027513E-004
   91.3781250000000        -6.577966385280104E-004
   91.5918750000000        -1.891909425646645E-003
   91.8056250000000        -3.039348957207951E-003
   92.0193750000000        -4.054319947715878E-003
   92.2331250000000        -4.897924230037511E-003
   92.4468750000000        -5.539779939685497E-003
   92.6606250000000        -5.959233756182003E-003
   92.8743750000000        -6.146107719134539E-003
   93.0881250000000        -6.100943914651586E-003
   93.3018750000000        -5.834734466245486E-003
   93.5156250000000        -5.368149633857747E-003
   93.7293750000000        -4.730302165094467E-003
   93.9431250000000        -3.957110026635872E-003
   94.1568750000000        -3.089340944388885E-003
   94.3706250000000        -2.170439554412832E-003
   94.5843750000000        -1.244250327125055E-003
   94.7981250000000        -3.527559299413653E-004
   95.0118750000000         4.660492041402666E-004
   95.2256250000000         1.180036817089064E-003
   95.4393750000000         1.764473858015043E-003
   95.6531250000000         2.203120850450026E-003
   95.8668750000000         2.488841332813147E-003
   96.0806250000000         2.623691160210020E-003
   96.2943750000000         2.618485535786510E-003
   96.5081250000000         2.491871073815515E-003
   96.7218750000000         2.268958260228457E-003
   96.9356250000000         1.979594711762215E-003
   97.1493750000000         1.656380156593023E-003
   97.3631250000000         1.332538851077642E-003
   97.5768750000000         1.039773341298484E-003
   97.7906250000000         8.062246026209694E-004
   98.0043750000000         6.546576023227390E-004
   98.2181250000000         6.009786012758464E-004
   98.4318750000000         6.531718013245756E-004
   98.6456250000000         8.107193455692041E-004
   98.8593750000000         1.064541533176349E-003
   99.0731250000000         1.397464931129074E-003
   99.2868750000000         1.785196440457451E-003
   99.5006250000000         2.197752878628389E-003
   99.7143750000000         2.601269753141311E-003
   99.9281250000000         2.960090940814447E-003
   100.141875000000         3.239024052499609E-003
   100.355625000000         3.405635199029622E-003
   100.569375000000         3.432452248318171E-003
   100.783125000000         3.298947754072159E-003
   100.996875000000         2.993181533753290E-003
   101.210625000000         2.512998083798301E-003
   101.424375000000         1.866695078791664E-003
   101.638125000000         1.073105284240901E-003
   101.851875000000         1.610642546481769E-004
   102.065625000000        -8.317310967947299E-004
   102.279375000000        -1.860434062785394E-003
   102.493125000000        -2.875257380322426E-003
   102.706875000000        -3.824076398090593E-003
   102.920625000000        -4.655295104289919E-003
   103.134375000000        -5.320822320694175E-003
   103.348125000000        -5.778991038302697E-003
   103.561875000000        -5.997248184573901E-003
   103.775625000000        -5.954446061737427E-003
   103.989375000000        -5.642580800022034E-003
   104.203125000000        -5.067847384063919E-003
   104.416875000000        -4.250914457795231E-003
   104.630625000000        -3.226363847541623E-003
   104.844375000000        -2.041287566693815E-003
   105.058125000000        -7.530863911191675E-004
   105.271875000000         5.734341359951772E-004
   105.485625000000         1.869525553874460E-003
   105.699375000000         3.066328971682385E-003
   105.913125000000         4.098858116276925E-003
   106.126875000000         4.909892509972219E-003
   106.340625000000         5.453534704434910E-003
   106.554375000000         5.698195874906467E-003
   106.768125000000         5.628800732715013E-003
   106.981875000000         5.248044739376414E-003
   107.195625000000         4.576591923358524E-003
   107.409375000000         3.652167032899004E-003
   107.623125000000         2.527567201337211E-003
   107.836875000000         1.267690977900175E-003
   108.050625000000        -5.424863389093212E-005
   108.264375000000        -1.361100677880079E-003
   108.478125000000        -2.576469670354850E-003
   108.691875000000        -3.629424674850253E-003
   108.905625000000        -4.458914319803609E-003
   109.119375000000        -5.017591153596100E-003
   109.333125000000        -5.274783109410605E-003
   109.546875000000        -5.218403637360058E-003
   109.760625000000        -4.855661857022294E-003
   109.974375000000        -4.212515177549883E-003
   110.188125000000        -3.331893520939019E-003
   110.401875000000        -2.270810286977629E-003
   110.615625000000        -1.096554134948644E-003
   110.829375000000         1.177784560486153E-004
   111.043125000000         1.298102157235597E-003
   111.256875000000         2.374179837580661E-003
   111.470625000000         3.284142626746268E-003
   111.684375000000         3.978380836431255E-003
   111.898125000000         4.422539476864926E-003
   112.111875000000         4.599417672360543E-003
   112.325625000000         4.509651652514303E-003
   112.539375000000         4.171150122358511E-003
   112.753125000000         3.617341930375629E-003
   112.966875000000         2.894382109506589E-003
   113.180625000000         2.057536986752899E-003
   113.394375000000         1.167026458297984E-003
   113.608125000000         2.836373813437115E-004
   113.821875000000        -5.355662885240132E-004
   114.035625000000        -1.241124201923943E-003
   114.249375000000        -1.794375609988313E-003
   114.463125000000        -2.169752489219967E-003
   114.676875000000        -2.356024847772170E-003
   114.890625000000        -2.356436358079219E-003
   115.104375000000        -2.187754776623767E-003
   115.318125000000        -1.878344299803563E-003
   115.531875000000        -1.465439586810550E-003
   115.745625000000        -9.918580713065292E-004
   115.959375000000        -5.024241354368345E-004
   116.173125000000        -4.039315666819458E-005
   116.386875000000         3.558453561844303E-004
   116.600625000000         6.555371651266087E-004
   116.814375000000         8.376068081643545E-004
   117.028125000000         8.918413396592392E-004
   117.241875000000         8.191540537317826E-004
   117.455625000000         6.309443803182189E-004
   117.669375000000         3.476430737158551E-004
   117.883125000000        -3.404693036622863E-006
   118.096875000000        -3.905166837756740E-004
   118.310625000000        -7.804789150137006E-004
   118.524375000000        -1.141335910034088E-003
   118.738125000000        -1.444933034530183E-003
   118.951875000000        -1.669007553487448E-003
   119.165625000000        -1.798670907840649E-003
   119.379375000000        -1.827182636227494E-003
   119.593125000000        -1.755981127446788E-003
   119.806875000000        -1.594002271183430E-003
   120.020625000000        -1.356378382403995E-003
   120.234375000000        -1.062661315103625E-003
   120.448125000000        -7.347512011064711E-004
   120.661875000000        -3.947327850499410E-004
   120.875625000000        -6.282343822522287E-005
   121.089375000000         2.443791935183286E-004
   121.303125000000         5.151945496163069E-004
   121.516875000000         7.435920558862515E-004
   121.730625000000         9.293049991258227E-004
   121.944375000000         1.077329705221289E-003
   122.158125000000         1.196871960786840E-003
   122.371875000000         1.299853843033371E-003
   122.585625000000         1.399134491229252E-003
   122.799375000000         1.506624406521665E-003
   123.013125000000         1.631482442220030E-003
   123.226875000000         1.778577051755167E-003
   123.440625000000         1.947369412938633E-003
   123.654375000000         2.131337981441891E-003
   123.868125000000         2.318015285104728E-003