  -1.60312500000000        -1.530052564895513E-023
  -1.38937500000000        -6.007900276735297E-024
  -1.17562500000000        -2.798000620639976E-022
 -0.961875000000000        -2.637680672810163E-021
 -0.748125000000000        -1.512295995995993E-020
 -0.534375000000000        -6.700909338382135E-020
 -0.320625000000000        -2.471698935875211E-019
 -0.106875000000000        -7.827517096722714E-019
  0.106875000000000        -2.168870341038378E-018
  0.320625000000000        -5.325226599917544E-018
  0.534375000000000        -1.171337666414286E-017
  0.748125000000000        -2.330615847676333E-017
  0.961875000000000        -4.230426780168109E-017
   1.17562500000000        -7.055485973242719E-017
   1.38937500000000        -1.086885549826391E-016
   1.60312500000000        -1.550756412283660E-016
   1.81687500000000        -2.049349955403557E-016
   2.03062500000000        -2.497958588023880E-016
   2.24437500000000        -2.775770140958764E-016
   2.45812500000000        -2.738056144690489E-016
   2.67187500000000        -2.241056129861446E-016
   2.88562500000000        -1.181157057870594E-016
   3.09937500000000         4.552878223074629E-017
   3.31312500000000         2.531467921271009E-016
   3.52687500000000         4.702212688920058E-016
   3.74062500000000         6.370531970970761E-016
   3.95437500000000         6.666782386225829E-016
   4.16812500000000         4.461878766404681E-016
   4.38187500000000        -1.568218965174293E-016
   4.59562500000000        -1.283808308738483E-015
   4.80937500000000        -3.070731261299353E-015
   5.02312500000000        -5.629205123277211E-015
   5.23687500000000        -9.027436582705793E-015
   5.45062500000000        -1.327222682534088E-014
   5.66437500000000        -1.829448783574959E-014
   5.87812500000000        -2.394265219259065E-014
   6.09187500000000        -2.998535597824887E-014
   6.30562500000000        -3.612409275668842E-014
   6.51937500000000        -4.201560539748449E-014
   6.73312500000000        -4.730224794006286E-014
   6.94687500000000        -5.164716039611829E-014
   7.16062500000000        -5.476942516523636E-014
   7.37437500000000        -5.647459879335595E-014
   7.58812500000000        -5.667612231212062E-014
   7.80187500000000        -5.540395092468069E-014
   8.01562500000000        -5.279953668313335E-014
   8.22937500000000        -4.909648828690156E-014
   8.44312500000000        -4.459108448968913E-014
   8.65687500000000        -3.960615719683093E-014
   8.87062500000000        -3.445583804465447E-014
   9.08437500000000        -2.941572301435885E-014
   9.29812500000000        -2.470483952170754E-014
   9.51187500000000        -2.048175959206291E-014
   9.72562500000000        -1.685565385224986E-014
   9.93937500000000        -1.391028446751618E-014
   10.1531250000000        -1.173417780238590E-014
   10.3668750000000        -1.045104366610303E-014
   10.5806250000000        -1.024278120712940E-014
   10.7943750000000        -1.135747654141897E-014
   11.0081250000000        -1.409935200553093E-014
   11.2218750000000        -1.879913634482717E-014
   11.4356250000000        -2.576796386936568E-014
   11.6493750000000        -3.524158882139451E-014
   11.8631250000000        -4.732408534338005E-014
   12.0768750000000        -6.194233090071571E-014
   12.2906250000000        -7.882042832221646E-014
   12.5043750000000        -9.748170444533882E-014
   12.7181250000000        -1.172810351134719E-013
   12.9318750000000        -1.374646651033307E-013
   13.1456250000000        -1.572510600370272E-013
   13.3593750000000        -1.759208373529953E-013
   13.5731250000000        -1.929030762848384E-013
   13.7868750000000        -2.078441207260511E-013
   14.0006250000000        -2.206482225876880E-013
   14.2143750000000        -2.314834525930127E-013
   14.4281250000000        -2.407521792383214E-013
   14.6418750000000        -2.490308200190497E-013
   14.8556250000000        -2.569890972887193E-013
   15.0693750000000        -2.653030635636018E-013
   15.2831250000000        -2.745751983649596E-013
   15.4968750000000        -2.852753393577982E-013
   15.7106250000000        -2.977103534086590E-013
   15.9243750000000        -3.120268428837877E-013
   16.1381250000000        -3.282434633900945E-013
   16.3518750000000        -3.463052163324270E-013
   16.5656250000000        -3.661478020474063E-013
   16.7793750000000        -3.877580047100423E-013
   16.9931250000000        -4.112171666801982E-013
   17.2068750000000        -4.367186045446453E-013
   17.4206250000000        -4.645545351141362E-013
   17.6343750000000        -4.950736831997637E-013
   17.8481250000000        -5.286174238830357E-013
   18.0618750000000        -5.654453535222916E-013
   18.2756250000000        -6.056645981286170E-013
   18.4893750000000        -6.491762463786478E-013
   18.7031250000000        -6.956494334096616E-013
   18.9168750000000        -7.445297419118057E-013
   19.1306250000000        -7.950827330565612E-013
   19.3443750000000        -8.464664803549695E-013
   19.5581250000000        -8.978240466287429E-013
   19.7718750000000        -9.483828763372351E-013
   19.9856250000000        -9.975469826039452E-013
   20.1993750000000        -1.044969244399886E-012
   20.4131250000000        -1.090594480465072E-012
   20.6268750000000        -1.134666987668776E-012
   20.8406250000000        -1.177702466069645E-012
   21.0543750000000        -1.220428352310769E-012
   21.2681250000000        -1.263700737539016E-012
   21.4818750000000        -1.308408263727914E-012
   21.6956250000000        -1.355375826607362E-012
   21.9093750000000        -1.405278458078416E-012
   22.1231250000000        -1.458576335783160E-012
   22.3368750000000        -1.515477551286188E-012
   22.5506250000000        -1.575933225215780E-012
   22.7643750000000        -1.639664781810256E-012
   22.9781250000000        -1.706220088203837E-012
   23.1918750000000        -1.775052138528639E-012
   23.4056250000000        -1.845610921789575E-012
   23.6193750000000        -1.917437689357888E-012
   23.8331250000000        -1.990250946697329E-012
   24.0468750000000        -2.064011506233394E-012
   24.2606250000000        -2.138957417992905E-012
   24.4743750000000        -2.215600519401491E-012
   24.6881250000000        -2.294681501285870E-012
   24.9018750000000        -2.377084173298784E-012
   25.1156250000000        -2.463714957231298E-012
   25.3293750000000        -2.555360218115187E-012
   25.5431250000000        -2.652535977996517E-012
   25.7568750000000        -2.755351658404492E-012
   25.9706250000000        -2.863408339439421E-012
   26.1843750000000        -2.975753852519979E-012
   26.3981250000000        -3.090911974377873E-012
   26.6118750000000        -3.206996645197144E-012
   26.8256250000000        -3.321914100022972E-012
   27.0393750000000        -3.433643153252999E-012
   27.2531250000000        -3.540571714002584E-012
   27.4668750000000        -3.641854997865241E-012
   27.6806250000000        -3.737748733392162E-012
   27.8943750000000        -3.829862036575103E-012
   28.1081250000000        -3.921271965872944E-012
   28.3218750000000        -4.016445866957970E-012
   28.5356250000000        -4.120930101066369E-012
   28.7493750000000        -4.240789324058973E-012
   28.9631250000000        -4.381810356812102E-012
   29.1768750000000        -4.548528660012937E-012
   29.3906250000000        -4.743176094208637E-012
   29.6043750000000        -4.964692745322640E-012
   29.8181250000000        -5.207976830435887E-012
   30.0318750000000        -5.463558123540535E-012
   30.2456250000000        -5.717867215437927E-012
   30.4593750000000        -5.954227652390031E-012
   30.6731250000000        -6.154615850633795E-012
   30.8868750000000        -6.302125784999804E-012
   31.1006250000000        -6.383942459176737E-012
   31.3143750000000        -6.394494910240945E-012
   31.5281250000000        -6.338340602509751E-012
   31.7418750000000        -6.232256376867504E-012
   31.9556250000000        -6.106001262494729E-012
   32.1693750000000        -6.001289351021532E-012
   32.3831250000000        -5.968676132845423E-012
   32.5968750000000        -6.062316445822438E-012
   32.8106250000000        -6.332872508639539E-012
   33.0243750000000        -6.819203488668508E-012
   33.2381250000000        -7.539801971455951E-012
   33.4518750000000        -8.485199559486863E-012
   33.6656250000000        -9.612688263665493E-012
   33.8793750000000        -1.084464560197150E-011
   34.0931250000000        -1.207148361304584E-011
   34.3068750000000        -1.315976281529180E-011
   34.5206250000000        -1.396536027782971E-011
   34.7343750000000        -1.435081862311568E-011
   34.9481250000000        -1.420523075921074E-011
   35.1618750000000        -1.346434814994084E-011
   35.3756250000000        -1.212815794055295E-011
   35.5893750000000        -1.027306046366545E-011
   35.8031250000000        -8.056063169603943E-012
   36.0168750000000        -5.709111164249649E-012
   36.2306250000000        -3.522754540776380E-012
   36.4443750000000        -1.819703584054927E-012
   36.6581250000000        -9.202841784808081E-013
   36.8718750000000        -1.103176062456198E-012
   37.0856250000000        -2.565886187627325E-012
   37.2993750000000        -5.389981285628123E-012
   37.5131250000000        -9.516042184390819E-012
   37.7268750000000        -1.473254058759332E-011
   37.9406250000000        -2.068142081153194E-011
   38.1543750000000        -2.688123256087391E-011
   38.3681250000000        -3.276644572407476E-011
   38.5818750000000        -3.773938529312336E-011
   38.7956250000000        -4.122937992051870E-011
   39.0093750000000        -4.275252171307376E-011
   39.2231250000000        -4.196511478616252E-011
   39.4368750000000        -3.870454523981678E-011
   39.6506250000000        -3.301289295398250E-011
   39.8643750000000        -2.514092104659925E-011
   40.0781250000000        -1.553278079819520E-011
   40.2918750000000        -4.794422785633618E-012
   40.5056250000000         6.349153640981964E-012
   40.7193750000000         1.710146361679222E-011
   40.9331250000000         2.664055498559123E-011
   41.1468750000000         3.415841197753319E-011
   41.3606250000000         3.889110985717680E-011
   41.5743750000000         4.014027894310420E-011
   41.7881250000000         3.728978811331481E-011
   42.0018750000000         2.982435503152555E-011
   42.2156250000000         1.735828649713554E-011
   42.4293750000000        -3.178552676947501E-013
   42.6431250000000        -2.316754894511297E-011
   42.8568750000000        -5.081540886390995E-011
   43.0706250000000        -8.243769663658692E-011
   43.2843750000000        -1.166506054525829E-010
   43.4981250000000        -1.514181142953068E-010
   43.7118750000000        -1.840068709654462E-010
   43.9256250000000        -2.110179245936033E-010
   44.1393750000000        -2.285228854182966E-010
   44.3531250000000        -2.323243993569344E-010
   44.5668750000000        -2.183475397632267E-010
   44.7806250000000        -1.831505420971038E-010
   44.9943750000000        -1.245218540302810E-010
   45.2081250000000        -4.210820768115245E-011
   45.4218750000000         6.200155500123970E-011
   45.6356250000000         1.828264335909770E-010
   45.8493750000000         3.122717718345022E-010
   46.0631250000000         4.392246055537437E-010
   46.2768750000000         5.500343373053799E-010
   46.4906250000000         6.294139407898911E-010
   46.7043750000000         6.617518261637333E-010
   46.9181250000000         6.327711389534894E-010
   47.1318750000000         5.314168555779171E-010
   47.3456250000000         3.517981275969965E-010
   47.5593750000000         9.497116798898892E-011
   47.7731250000000        -2.296762877369734E-010
   47.9868750000000        -6.036781305924647E-010
   48.2006250000000        -9.995917828121541E-010
   48.4143750000000        -1.382102208158688E-009
   48.6281250000000        -1.710195645939727E-009
   48.8418750000000        -1.940362409165629E-009
   49.0556250000000        -2.030666121664370E-009
   49.2693750000000        -1.945392872218536E-009
   49.4831250000000        -1.659881654757062E-009
   49.6968750000000        -1.165051511756359E-009
   49.9106250000000        -4.710944655424697E-010
   50.1243750000000         3.901924480238909E-010
   50.3381250000000         1.364901092481958E-009
   50.5518750000000         2.378676609654214E-009
   50.7656250000000         3.340722087367146E-009
   50.9793750000000         4.150095670950785E-009
   51.1931250000000         4.704008871052707E-009
   51.4068750000000         4.907587854485617E-009
   51.6206250000000         4.684334289342985E-009
   51.8343750000000         3.986345009570925E-009
   52.0481250000000         2.803244704171059E-009
   52.2618750000000         1.168772799956348E-009
   52.4756250000000        -8.359426646678658E-010
   52.6893750000000        -3.083191664378992E-009
   52.9031250000000        -5.404036172409440E-009
   53.1168750000000        -7.598295003085499E-009
   53.3306250000000        -9.448805398173471E-009
   53.5443750000000        -1.073915244065610E-008
   53.7581250000000        -1.127362813566236E-008
   53.9718750000000        -1.089782308596511E-008
   54.1856250000000        -9.518007667584041E-009
   54.3993750000000        -7.117362346132351E-009
   54.6131250000000        -3.767193279789320E-009
   54.8268750000000         3.684697632581121E-010
   55.0406250000000         5.036057107849709E-009
   55.2543750000000         9.903995273890978E-009
   55.4681250000000         1.458246017443722E-008
   55.6818750000000         1.865044900872721E-008
   55.8956250000000         2.168851888870535E-008
   56.1093750000000         2.331486787935544E-008
   56.3231250000000         2.322191327789379E-008
   56.5368750000000         2.121021457342019E-008
   56.7506250000000         1.721654154878867E-008
   56.9643750000000         1.133312745759398E-008
   57.1781250000000         3.815674058171649E-009
   57.3918750000000        -4.921536832699666E-009
   57.6056250000000        -1.432407488262150E-008
   57.8193750000000        -2.372885889626417E-008
   58.0331250000000        -3.240708106716035E-008
   58.2468750000000        -3.961582487229527E-008
   58.4606250000000        -4.465472468050591E-008
   58.6743750000000        -4.692336606068534E-008
   58.8881250000000        -4.597482185349327E-008
   59.1018750000000        -4.156080663786821E-008
   59.3156250000000        -3.366442220052699E-008
   59.5293750000000        -2.251733128721919E-008
   59.7431250000000        -8.599370534884549E-009
   59.9568750000000         7.380003071747057E-009
   60.1706250000000         2.451756860832389E-008
   60.3843750000000         4.176721895199080E-008
   60.5981250000000         5.800234823616735E-008
   60.8118750000000         7.208531634332513E-008
   61.0256250000000         8.293903788207835E-008
   61.2393750000000         8.961567617414410E-008
   61.4531250000000         9.135781286229211E-008
   61.6668750000000         8.764826482631713E-008
   61.8806250000000         7.824583947471360E-008
   62.0943750000000         6.320562685984421E-008
   62.3081250000000         4.288376860587616E-008
   62.5218750000000         1.792785975016513E-008
   62.7356250000000        -1.074491549658432E-008
   62.9493750000000        -4.197925220933503E-008
   63.1631250000000        -7.442002237124342E-008
   63.3768750000000        -1.065549642668515E-007
   63.5906250000000        -1.367600532124372E-007
   63.8043750000000        -1.633468367952636E-007
   64.0181250000000        -1.846121061734428E-007
   64.2318750000000        -1.988912563394932E-007
   64.4456250000000        -2.046173558014655E-007
   64.6593750000000        -2.003881161703151E-007
   64.8731250000000        -1.850424918427280E-007
   65.0868750000000        -1.577474916278803E-007
   65.3006250000000        -1.180939823648525E-007
   65.5143750000000        -6.619794360482141E-008
   65.7281250000000        -2.801021978731890E-009
   65.9418750000000         7.063835752947590E-008
   66.1556250000000         1.518742792609228E-007
   66.3693750000000         2.378354415011888E-007
   66.5831250000000         3.246328644591322E-007
   66.7968750000000         4.076249943545891E-007
   67.0106250000000         4.815494874083389E-007
   67.2243750000000         5.407269274664426E-007
   67.4381250000000         5.793363404020552E-007
   67.6518750000000         5.917559469718464E-007
   67.8656250000000         5.729556267205264E-007
   68.0793750000000         5.189206522625326E-007
   68.2931250000000         4.270800701869176E-007
   68.5068750000000         2.967083360803181E-007
   68.7206250000000         1.292660832341881E-007
   68.9343750000000        -7.135428094552182E-008
   69.1481250000000        -2.987097834596929E-007
   69.3618750000000        -5.438409144972844E-007
   69.5756250000000        -7.954761041432749E-007
   69.7893750000000        -1.040413552954267E-006
   70.0031250000000        -1.264074944890957E-006
   70.2168750000000        -1.451212413496050E-006
   70.4306250000000        -1.586737201605800E-006
   70.6443750000000        -1.656626808688740E-006
   70.8581250000000        -1.648858075975191E-006
   71.0718750000000        -1.554307505895006E-006
   71.2856250000000        -1.367557824851547E-006
   71.4993750000000        -1.087551774214128E-006
   71.7131250000000        -7.180404278847464E-007
   71.9268750000000        -2.677837198706124E-007
   72.1406250000000         2.495252727783604E-007
   72.3543750000000         8.156242910731646E-007
   72.5681250000000         1.408328157282168E-006
   72.7818750000000         2.002433216803361E-006
   72.9956250000000         2.570838701316329E-006
   73.2093750000000         3.085828897332052E-006
   73.4231250000000         3.520448493250519E-006
   73.6368750000000         3.849896147004576E-006
   73.8506250000000         4.052858694829555E-006
   74.0643750000000         4.112710697757449E-006
   74.2781250000000         4.018511032205857E-006
   74.4918750000000         3.765739476249836E-006
   74.7056250000000         3.356730934869784E-006
   74.9193750000000         2.800782071360121E-006
   75.1331250000000         2.113923509621055E-006
   75.3468750000000         1.318369230034963E-006
   75.5606250000000         4.416721226988709E-007
   75.7743750000000        -4.843701714777861E-007
   75.9881250000000        -1.425002875178914E-006
   76.2018750000000        -2.343930424392377E-006
   76.4156250000000        -3.204792377808146E-006
   76.6293750000000        -3.972629322910229E-006
   76.8431250000000        -4.615272683280396E-006
   77.0568750000000        -5.104599200135507E-006
   77.2706250000000        -5.417600484152353E-006
   77.4843750000000        -5.537229631382751E-006
   77.6981250000000        -5.452999621221333E-006
   77.9118750000000        -5.161321213296770E-006
   78.1256250000000        -4.665580539182390E-006
   78.3393750000000        -3.975967857638279E-006
   78.5531250000000        -3.109078469913906E-006
   78.7668750000000        -2.087314208107783E-006
   78.9806250000000        -9.381190308971856E-007
   79.1943750000000         3.069149184788279E-007
   79.4081250000000         1.613033761838956E-006
   79.6218750000000         2.943364994485633E-006
   79.8356250000000         4.259984054861802E-006
   80.0493750000000         5.524974833935793E-006
   80.2631250000000         6.701458841093940E-006
   80.4768750000000         7.754572102404234E-006
   80.6906250000000         8.652372960915464E-006
   80.9043750000000         9.366667473714142E-006
   81.1181250000000         9.873741854983892E-006
   81.3318750000000         1.015499330788214E-005
   81.5456250000000         1.019745164208305E-005
   81.7593750000000         9.994184412981194E-006
   81.9731250000000         9.544578154170640E-006
   82.1868750000000         8.854487881985849E-006
   82.4006250000000         7.936246740786026E-006
   82.6143750000000         6.808527747340329E-006
   82.8281250000000         5.496050374681927E-006
   83.0418750000000         4.029126429556750E-006
   83.2556250000000         2.443042484946356E-006
   83.4693750000000         7.772800955483025E-007
   83.6831250000000        -9.254198927664530E-007
   83.8968750000000        -2.620136582058013E-006
   84.1106250000000        -4.260972702024744E-006
   84.3243750000000        -5.802356519253822E-006
   84.5381250000000        -7.200408731869472E-006
   84.7518750000000        -8.414334608889097E-006
   84.9656250000000        -9.407796152765467E-006
   85.1793750000000        -1.015021505685291E-005
   85.3931250000000        -1.061795510159713E-005
   85.6068750000000        -1.079533270508457E-005
   85.8206250000000        -1.067540682730623E-005
   86.0343750000000        -1.026050440818402E-005
   86.2481250000000        -9.562444944935194E-006
   86.4618750000000        -8.602437493989827E-006
   86.6756250000000        -7.410634994333332E-006
   86.8893750000000        -6.025343914525445E-006
   87.1031250000000        -4.491901291973903E-006
   87.3168750000000        -2.861245659673265E-006
   87.5306250000000        -1.188222503360844E-006
   87.7443750000000         4.703218866105284E-007
   87.9581250000000         2.057592636233699E-006
   88.1718750000000         3.518969513807814E-006
   88.3856250000000         4.804119199856822E-006
   88.5993750000000         5.869010809339888E-006
   88.8131250000000         6.677748422874031E-006
   89.0268750000000         7.204137512111787E-006
   89.2406250000000         7.432908929680515E-006
   89.4543750000000         7.360534521936125E-006
   89.6681250000000         6.995582222296616E-006
   89.8818750000000         6.358575362088513E-006
   90.0956250000000         5.481340418582494E-006
   90.3093750000000         4.405848885571297E-006
   90.5231250000000         3.182581638898130E-006
   90.7368750000000         1.868467184957101E-006
   90.9506250000000         5.244675182928429E-007
   91.1643750000000        -7.870941160991613E-007
   91.3781250000000        -2.005351595673733E-006
   91.5918750000000        -3.073734838568098E-006
   91.8056250000000        -3.942695142511957E-006
   92.0193750000000        -4.572180299272603E-006
   92.2331250000000        -4.933727035678079E-006
   92.4468750000000        -5.012049655485424E-006
   92.6606250000000        -4.806022257511082E-006
   92.8743750000000        -4.328977223071202E-006
   93.0881250000000        -3.608273994960038E-006
   93.3018750000000        -2.684128259163276E-006
   93.5156250000000        -1.607730819619534E-006
   93.7293750000000        -4.387257015010813E-007
   93.9431250000000         7.578439517073202E-007
   94.1568750000000         1.914978219034440E-006
   94.3706250000000         2.967377627364153E-006
   94.5843750000000         3.855120747584778E-006
   94.7981250000000         4.527156569034976E-006
   95.0118750000000         4.944406414214547E-006
   95.2256250000000         5.082282659489358E-006
   95.4393750000000         4.932456165965224E-006
   95.6531250000000         4.503740303671698E-006
   95.8668750000000         3.822005201484402E-006
   96.0806250000000         2.929089087414358E-006
   96.2943750000000         1.880731407054670E-006
   96.5081250000000         7.436114862450567E-007
   96.7218750000000        -4.083667434343432E-007
   96.9356250000000        -1.498352612581698E-006
   97.1493750000000        -2.451156322225420E-006
   97.3631250000000        -3.197924193172444E-006
   97.5768750000000        -3.680604775049467E-006
   97.7906250000000        -3.855930401078547E-006
   98.0043750000000        -3.698656742404942E-006
   98.2181250000000        -3.203837037004544E-006
   98.4318750000000        -2.387956497566607E-006
   98.6456250000000        -1.288813557692980E-006
   98.8593750000000         3.589510424956682E-008
   99.0731250000000         1.511253267500693E-006
   99.2868750000000         3.048958552986550E-006
   99.5006250000000         4.552128387644558E-006
   99.7143750000000         5.920831309173090E-006
   99.9281250000000         7.058043268249131E-006
   100.141875000000         7.875691081472557E-006
   100.355625000000         8.300426078531999E-006
   100.569375000000         8.278772115679558E-006
   100.783125000000         7.781314252843785E-006
   100.996875000000         6.805637102847881E-006
   101.210625000000         5.377783553271646E-006
   101.424375000000         3.552082471471426E-006
   101.638125000000         1.409284308538860E-006
   101.851875000000        -9.469585039623294E-007
   102.065625000000        -3.395129225017042E-006
   102.279375000000        -5.802168710093453E-006
   102.493125000000        -8.030760502958716E-006
   102.706875000000        -9.947186017412196E-006
   102.920625000000        -1.142930494400610E-005
   103.134375000000        -1.237418870707241E-005
   103.348125000000        -1.270493488419280E-005
   103.561875000000        -1.237621941061376E-005
   103.775625000000        -1.137820084740566E-005
   103.989375000000        -9.738474910452478E-006
   104.203125000000        -7.521883954697857E-006
   104.416875000000        -4.828109629471418E-006
   104.630625000000        -1.787110489089153E-006
   104.844375000000         1.447398073869275E-006
   105.058125000000         4.706095225285102E-006
   105.271875000000         7.813397350419337E-006
   105.485625000000         1.059746156476813E-005
   105.699375000000         1.290025964853368E-005
   105.913125000000         1.458710757525990E-005
   106.126875000000         1.555505012433612E-005
   106.340625000000         1.573955372547704E-005
   106.554375000000         1.511905162730200E-005
   106.768125000000         1.371700900074858E-005
   106.981875000000         1.160132452412678E-005
   107.195625000000         8.881050151665744E-006
   107.409375000000         5.700581478867848E-006
   107.623125000000         2.231635972876524E-006
   107.836875000000        -1.336516028412647E-006
   108.050625000000        -4.807982712728381E-006
   108.264375000000        -7.991676334024223E-006
   108.478125000000        -1.071252419684114E-005
   108.691875000000        -1.282176245329290E-005
   108.905625000000        -1.420566299532512E-005
   109.119375000000        -1.479214049110597E-005
   109.333125000000        -1.455482108167171E-005
   109.546875000000        -1.351431751362737E-005
   109.760625000000        -1.173663648808485E-005
   109.974375000000        -9.328830357521760E-006
   110.188125000000        -6.432184153433566E-006
   110.401875000000        -3.213387922550522E-006
   110.615625000000         1.457274678140241E-007
   110.829375000000         3.459224274834259E-006
   111.043125000000         6.548151646356303E-006
   111.256875000000         9.250994245391842E-006
   111.470625000000         1.143282305993817E-005
   111.684375000000         1.299259119737310E-005
   111.898125000000         1.386814896563631E-005
   112.111875000000         1.403871047401958E-005
   112.325625000000         1.352467702414914E-005
   112.539375000000         1.238489851773330E-005
   112.753125000000         1.071162082110274E-005
   112.966875000000         8.623513239571450E-006
   113.180625000000         6.257286398906412E-006
   113.394375000000         3.758489670239152E-006
   113.608125000000         1.272114357331018E-006
   113.821875000000        -1.066377237435156E-006
   114.035625000000        -3.139024434516056E-006
   114.249375000000        -4.851854883149888E-006
   114.463125000000        -6.139512871165220E-006
   114.676875000000        -6.967793448484593E-006
   114.890625000000        -7.333994910802622E-006
   115.104375000000        -7.265151777388691E-006
   115.318125000000        -6.814351094188379E-006
   115.531875000000        -6.055457493119246E-006
   115.745625000000        -5.076669253890116E-006
   115.959375000000        -3.973392938174100E-006
   116.173125000000        -2.840954575460375E-006
   116.386875000000        -1.767659881186922E-006
   116.600625000000        -8.286759920554963E-007
   116.814375000000        -8.113635086293228E-008
   117.028125000000         4.392257785429587E-007
   117.241875000000         7.197240807127329E-007
   117.455625000000         7.705797382664542E-007
   117.669375000000         6.230555063812417E-007
   117.883125000000         3.260425426334573E-007
   118.096875000000        -5.861586885124791E-008
   118.310625000000        -4.616959525742853E-007
   118.524375000000        -8.126356166368672E-007
   118.738125000000        -1.045595249655381E-006
   118.951875000000        -1.105089554926473E-006
   119.165625000000        -9.507780030175304E-007
   119.379375000000        -5.610648795533702E-007
   119.593125000000         6.475290603245391E-008
   119.806875000000         9.059470909220144E-007
   120.020625000000         1.921469612337713E-006
   120.234375000000         3.052637253445881E-006
   120.448125000000         4.227199139994288E-006
   120.661875000000         5.364496929215946E-006
   120.875625000000         6.381347714318463E-006
   121.089375000000         7.198225609017894E-006
   121.303125000000         7.745293632709376E-006
   121.516875000000         7.967844839436643E-006
   121.730625000000         7.830750398315883E-006
   121.944375000000         7.321580111531933E-006
   122.158125000000         6.452153142029790E-006
   122.371875000000         5.258387206610238E-006
   122.585625000000         3.798435469515674E-006
   122.799375000000         2.149223277097301E-006
   123.013125000000         4.016128705594475E-007
   123.226875000000        -1.345475161157425E-006
   123.440625000000        -2.991577133620905E-006
   123.654375000000        -4.441382599694475E-006
   123.868125000000        -5.611139645892116E-006