  -1.60312500000000         4.555436214067134E-020
  -1.38937500000000         2.926219222374338E-017
  -1.17562500000000         1.848194559344772E-016
 -0.961875000000000         8.026965426032807E-016
 -0.748125000000000         2.795714286691750E-015
 -0.534375000000000         7.965891301199355E-015
 -0.320625000000000         1.835067422782824E-014
 -0.106875000000000         3.268322584136225E-014
  0.106875000000000         3.807946213664184E-014
  0.320625000000000        -2.902728867226960E-015
  0.534375000000000        -1.661115097640336E-013
  0.748125000000000        -5.754927843763479E-013
  0.961875000000000        -1.404891110109710E-012
   1.17562500000000        -2.871479886156331E-012
   1.38937500000000        -5.223220033170133E-012
   1.60312500000000        -8.721846559846795E-012
   1.81687500000000        -1.362396796036404E-011
   2.03062500000000        -2.016025090614069E-011
   2.24437500000000        -2.851164639709258E-011
   2.45812500000000        -3.879419319864802E-011
   2.67187500000000        -5.103579516648498E-011
   2.88562500000000        -6.517070024786577E-011
   3.09937500000000        -8.102926567071216E-011
   3.31312500000000        -9.834509217970989E-011
   3.52687500000000        -1.167701474274412E-010
   3.74062500000000        -1.358922774209210E-010
   3.95437500000000        -1.552730558265536E-010
   4.16812500000000        -1.744805151778728E-010
   4.38187500000000        -1.931297187644636E-010
   4.59562500000000        -2.109183513736487E-010
   4.80937500000000        -2.276549480039552E-010
   5.02312500000000        -2.432769646973319E-010
   5.23687500000000        -2.578496185503051E-010
   5.45062500000000        -2.715437710817615E-010
   5.66437500000000        -2.846049678782373E-010
   5.87812500000000        -2.973002992448109E-010
   6.09187500000000        -3.098585008928473E-010
   6.30562500000000        -3.224108629893378E-010
   6.51937500000000        -3.349476953392536E-010
   6.73312500000000        -3.472821696297937E-010
   6.94687500000000        -3.590534848519581E-010
   7.16062500000000        -3.697412681411933E-010
   7.37437500000000        -3.787377156449558E-010
   7.58812500000000        -3.854119342466101E-010
   7.80187500000000        -3.892058050880923E-010
   8.01562500000000        -3.897217445604271E-010
   8.22937500000000        -3.867953253449715E-010
   8.44312500000000        -3.805309002564657E-010
   8.65687500000000        -3.713073104242030E-010
   8.87062500000000        -3.597312333002451E-010
   9.08437500000000        -3.465564632927403E-010
   9.29812500000000        -3.325729001042940E-010
   9.51187500000000        -3.184877156792288E-010
   9.72562500000000        -3.048163998118299E-010
   9.93937500000000        -2.918057163865454E-010
   10.1531250000000        -2.794013463685928E-010
   10.3668750000000        -2.672753362199097E-010
   10.5806250000000        -2.548995701365747E-010
   10.7943750000000        -2.416656969189744E-010
   11.0081250000000        -2.270300809967401E-010
   11.2218750000000        -2.106450023071179E-010
   11.4356250000000        -1.924723769065611E-010
   11.6493750000000        -1.728367892056138E-010
   11.8631250000000        -1.524149676046667E-010
   12.0768750000000        -1.321681067543168E-010
   12.2906250000000        -1.131949974545431E-010
   12.5043750000000        -9.657905793345211E-011
   12.7181250000000        -8.319432636346214E-011
   12.9318750000000        -7.356837461214310E-011
   13.1456250000000        -6.776753872873696E-011
   13.3593750000000        -6.536859981173560E-011
   13.5731250000000        -6.550483769581821E-011
   13.7868750000000        -6.698131598983113E-011
   14.0006250000000        -6.844558427708460E-011
   14.2143750000000        -6.858373157591220E-011
   14.4281250000000        -6.630462335618499E-011
   14.6418750000000        -6.089799250864142E-011
   14.8556250000000        -5.212792311452786E-011
   15.0693750000000        -4.024634478387441E-011
   15.2831250000000        -2.595108558803308E-011
   15.4968750000000        -1.027145552794187E-011
   15.7106250000000         5.574350756137550E-012
   15.9243750000000         2.033719686607971E-011
   16.1381250000000         3.287975302184547E-011
   16.3518750000000         4.228428042905970E-011
   16.5656250000000         4.791164158938764E-011
   16.7793750000000         4.941581139037526E-011
   16.9931250000000         4.671847099543921E-011
   17.2068750000000         3.995149660152732E-011
   17.4206250000000         2.940320534094958E-011
   17.6343750000000         1.545921480110948E-011
   17.8481250000000        -1.430183897967703E-012
   18.0618750000000        -2.076053457134348E-011
   18.2756250000000        -4.197732223784808E-011
   18.4893750000000        -6.444971220284473E-011
   18.7031250000000        -8.747129861131605E-011
   18.9168750000000        -1.102573822775516E-010
   19.1306250000000        -1.319757397902646E-010
   19.3443750000000        -1.517947343664656E-010
   19.5581250000000        -1.689517693330023E-010
   19.7718750000000        -1.828263225401978E-010
   19.9856250000000        -1.930044521494753E-010
   20.1993750000000        -1.993227363206371E-010
   20.4131250000000        -2.018726862720669E-010
   20.6268750000000        -2.009766238825253E-010
   20.8406250000000        -1.971264080614311E-010
   21.0543750000000        -1.909014031156264E-010
   21.2681250000000        -1.828842655007043E-010
   21.4818750000000        -1.735899738844208E-010
   21.6956250000000        -1.634189030125445E-010
   21.9093750000000        -1.526523427620935E-010
   22.1231250000000        -1.414776635031055E-010
   22.3368750000000        -1.300453890848429E-010
   22.5506250000000        -1.185367164739441E-010
   22.7643750000000        -1.072196975972039E-010
   22.9781250000000        -9.648263205462373E-011
   23.1918750000000        -8.682617895202647E-011
   23.4056250000000        -7.881158480684313E-011
   23.6193750000000        -7.297041269825142E-011
   23.8331250000000        -6.969547659215916E-011
   24.0468750000000        -6.912171328913702E-011
   24.2606250000000        -7.105246577945906E-011
   24.4743750000000        -7.491039919634702E-011
   24.6881250000000        -7.977228152607094E-011
   24.9018750000000        -8.445586269868417E-011
   25.1156250000000        -8.767344638640037E-011
   25.3293750000000        -8.821332443839526E-011
   25.5431250000000        -8.513259681735959E-011
   25.7568750000000        -7.791026761827253E-011
   25.9706250000000        -6.654811053948443E-011
   26.1843750000000        -5.157492235006629E-011
   26.3981250000000        -3.396185481891209E-011
   26.6118750000000        -1.493583535451837E-011
   26.8256250000000         4.270649057856329E-012
   27.0393750000000         2.270451122799058E-011
   27.2531250000000         3.996114956007887E-011
   27.4668750000000         5.639289447575045E-011
   27.6806250000000         7.318992500406891E-011
   27.8943750000000         9.231211656188972E-011
   28.1081250000000         1.162552074266892E-010
   28.3218750000000         1.476298247383103E-010
   28.5356250000000         1.886218910455016E-010
   28.7493750000000         2.403668524274823E-010
   28.9631250000000         3.023516663496861E-010
   29.1768750000000         3.719271817580518E-010
   29.3906250000000         4.440728472152897E-010
   29.6043750000000         5.115014613432654E-010
   29.8181250000000         5.651807735946448E-010
   30.0318750000000         5.953220455424426E-010
   30.2456250000000         5.927761807234292E-010
   30.4593750000000         5.507334298579290E-010
   30.6731250000000         4.665315669829078E-010
   30.8868750000000         3.433038927569814E-010
   31.1006250000000         1.911427247548063E-010
   31.3143750000000         2.746448027064825E-011
   31.5281250000000        -1.237083485470731E-010
   31.7418750000000        -2.337249624495137E-010
   31.9556250000000        -2.725618892566656E-010
   32.1693750000000        -2.131661873862320E-010
   32.3831250000000        -3.647799606637227E-011
   32.5968750000000         2.634994723782460E-010
   32.8106250000000         6.753858552906005E-010
   33.0243750000000         1.167735184202731E-009
   33.2381250000000         1.688792933836108E-009
   33.4518750000000         2.169360518070586E-009
   33.6656250000000         2.529033916948820E-009
   33.8793750000000         2.685673496973580E-009
   34.0931250000000         2.567375875460995E-009
   34.3068750000000         2.125683314695216E-009
   34.5206250000000         1.348310778792912E-009
   34.7343750000000         2.693094713003111E-010
   34.9481250000000        -1.025391542682662E-009
   35.1618750000000        -2.398914880995651E-009
   35.3756250000000        -3.672072007854886E-009
   35.5893750000000        -4.640019872821756E-009
   35.8031250000000        -5.096160188463928E-009
   36.0168750000000        -4.861219923928629E-009
   36.2306250000000        -3.814352323585471E-009
   36.4443750000000        -1.922156462205285E-009
   36.6581250000000         7.389272001157225E-010
   36.8718750000000         3.971262698144866E-009
   37.0856250000000         7.459351693726439E-009
   37.2993750000000         1.079003662186771E-008
   37.5131250000000         1.348978189483485E-008
   37.7268750000000         1.507688572369623E-008
   37.9406250000000         1.512403331137466E-008
   38.1543750000000         1.332449558773993E-008
   38.3681250000000         9.553667173462994E-009
   38.5818750000000         3.917041984292477E-009
   38.7956250000000        -3.223832823360560E-009
   39.0093750000000        -1.125417228408224E-008
   39.2231250000000        -1.934150441538116E-008
   39.4368750000000        -2.650416966111568E-008
   39.6506250000000        -3.170882446374738E-008
   39.8643750000000        -3.398873322663358E-008
   40.0781250000000        -3.257100928898504E-008
   40.2918750000000        -2.699839514539920E-008
   40.5056250000000        -1.723008854344449E-008
   40.7193750000000        -3.706931694415050E-009
   40.9331250000000         1.263108946635019E-008
   41.1468750000000         3.038269627125331E-008
   41.3606250000000         4.778054709438010E-008
   41.5743750000000         6.283937837894967E-008
   41.7881250000000         7.354624720759250E-008
   42.0018750000000         7.807631041229888E-008
   42.2156250000000         7.501337300647342E-008
   42.4293750000000         6.355218433333363E-008
   42.6431250000000         4.365951935393623E-008
   42.8568750000000         1.617359945107148E-008
   43.0706250000000        -1.717387645309329E-008
   43.2843750000000        -5.382234584663119E-008
   43.4981250000000        -9.053519968627332E-008
   43.7118750000000        -1.236342365815570E-007
   43.9256250000000        -1.493013714860017E-007
   44.1393750000000        -1.639262944347075E-007
   44.3531250000000        -1.644734384336459E-007
   44.5668750000000        -1.488380616633914E-007
   44.7806250000000        -1.161598854033481E-007
   44.9943750000000        -6.706346730429554E-008
   45.2081250000000        -3.797347187725926E-009
   45.4218750000000         6.975109308118098E-008
   45.6356250000000         1.481813410362894E-007
   45.8493750000000         2.248537853247308E-007
   46.0631250000000         2.923096920247642E-007
   46.2768750000000         3.428232426935776E-007
   46.4906250000000         3.690592551334951E-007
   46.7043750000000         3.647973314844850E-007
   46.9181250000000         3.256707350878369E-007
   47.1318750000000         2.498575664006106E-007
   47.3456250000000         1.386541375936591E-007
   47.5593750000000        -3.142450870734974E-009
   47.7731250000000        -1.671120744934373E-007
   47.9868750000000        -3.414081656500937E-007
   48.2006250000000        -5.113120729595659E-007
   48.4143750000000        -6.601562752642963E-007
   48.6281250000000        -7.705925501013222E-007
   48.8418750000000        -8.261413514999278E-007
   49.0556250000000        -8.129175467047723E-007
   49.2693750000000        -7.213898239838462E-007
   49.4831250000000        -5.480015397813387E-007
   49.6968750000000        -2.964646090030762E-007
   49.9106250000000         2.146018846945008E-008
   50.1243750000000         3.858604678242397E-007
   50.3381250000000         7.693663260903951E-007
   50.5518750000000         1.138695171949878E-006
   50.7656250000000         1.457019350889952E-006
   50.9793750000000         1.687037055472617E-006
   51.1931250000000         1.794534698785223E-006
   51.4068750000000         1.752146277487495E-006
   51.6206250000000         1.542953070757069E-006
   51.8343750000000         1.163535060800597E-006
   52.0481250000000         6.260914204164671E-007
   52.2618750000000        -4.070460500019332E-008
   52.4756250000000        -7.923611324720292E-007
   52.6893750000000        -1.570851205717657E-006
   52.9031250000000        -2.308488141386299E-006
   53.1168750000000        -2.933188702567114E-006
   53.3306250000000        -3.374756022985507E-006
   53.5443750000000        -3.571671521225210E-006
   53.7581250000000        -3.477781433674805E-006
   53.9718750000000        -3.068213745630398E-006
   54.1856250000000        -2.343875415440956E-006
   54.3993750000000        -1.333961993814797E-006
   54.6131250000000        -9.605897207473193E-008
   54.8268750000000         1.286383759764381E-006
   55.0406250000000         2.709182999078018E-006
   55.2543750000000         4.054881880824810E-006
   55.4681250000000         5.202015045147382E-006
   55.6818750000000         6.035445850462474E-006
   55.8956250000000         6.456891087579654E-006
   56.1093750000000         6.394675987292341E-006
   56.3231250000000         5.811779678415805E-006
   56.5368750000000         4.711341840635724E-006
   56.7506250000000         3.138998304553121E-006
   56.9643750000000         1.181681074378223E-006
   57.1781250000000        -1.037167407597612E-006
   57.3918750000000        -3.365684707244444E-006
   57.6056250000000        -5.634387166362549E-006
   57.8193750000000        -7.668813556064408E-006
   58.0331250000000        -9.302959854059902E-006
   58.2468750000000        -1.039235934233414E-005
   58.4606250000000        -1.082568026365548E-005
   58.6743750000000        -1.053384211556758E-005
   58.8881250000000        -9.495880263675505E-006
   59.1018750000000        -7.741094872995689E-006
   59.3156250000000        -5.347373149615985E-006
   59.5293750000000        -2.435936541527645E-006
   59.7431250000000         8.369023155654784E-007
   59.9568750000000         4.290121749517135E-006
   60.1706250000000         7.729492174868511E-006
   60.3843750000000         1.095912541053212E-005
   60.5981250000000         1.379207644871938E-005
   60.8118750000000         1.605919606382689E-005
   61.0256250000000         1.761572365370421E-005
   61.2393750000000         1.834546309636715E-005
   61.4531250000000         1.816275504881652E-005
   61.6668750000000         1.701279683178132E-005
   61.8806250000000         1.487111619868928E-005
   62.0943750000000         1.174313433460252E-005
   62.3081250000000         7.664725836126005E-006
   62.5218750000000         2.704486159081118E-006
   62.7356250000000        -3.031941596171194E-006
   62.9493750000000        -9.395617334905642E-006
   63.1631250000000        -1.618683463414535E-005
   63.3768750000000        -2.314770613383982E-005
   63.5906250000000        -2.995657447973793E-005
   63.8043750000000        -3.622635502167257E-005
   64.0181250000000        -4.150901365688056E-005
   64.2318750000000        -4.530818311628772E-005
   64.4456250000000        -4.710139263123907E-005
   64.6593750000000        -4.637253440153003E-005
   64.8731250000000        -4.265406147671687E-005
   65.0868750000000        -3.557709281063049E-005
   65.3006250000000        -2.492621664390211E-005
   65.5143750000000        -1.069448511669282E-005
   65.7281250000000         6.866952554145751E-006
   65.9418750000000         2.721076064191195E-005
   66.1556250000000         4.947312616861857E-005
   66.3693750000000         7.247693747171240E-005
   66.5831250000000         9.476281966795479E-005
   66.7968750000000         1.146504614495496E-004
   67.0106250000000         1.303301493684837E-004
   67.2243750000000         1.399815224654351E-004
   67.4381250000000         1.419135156360599E-004
   67.6518750000000         1.347165650975043E-004
   67.8656250000000         1.174157140779968E-004
   68.0793750000000         8.961158184610498E-005
   68.2931250000000         5.159550187793323E-005
   68.5068750000000         4.425678372409305E-006
   68.7206250000000        -5.004696326018862E-005
   68.9343750000000        -1.092114843650325E-004
   69.1481250000000        -1.697922985523306E-004
   69.3618750000000        -2.280063454954054E-004
   69.5756250000000        -2.797758705641815E-004
   69.7893750000000        -3.209853131990491E-004
   70.0031250000000        -3.477660674692609E-004
   70.2168750000000        -3.567891766009304E-004
   70.4306250000000        -3.455437791926729E-004
   70.6443750000000        -3.125786498371736E-004
   70.8581250000000        -2.576856354650597E-004
   71.0718750000000        -1.820071735584419E-004
   71.2856250000000        -8.805519989006787E-005
   71.4993750000000         2.036475179151049E-005
   71.7131250000000         1.383231000078344E-004
   71.9268750000000         2.600206594319327E-004
   72.1406250000000         3.791120524323140E-004
   72.3543750000000         4.890760817949156E-004
   72.5681250000000         5.836066531741524E-004
   72.7818750000000         6.569955593758564E-004
   72.9956250000000         7.044785608935081E-004
   73.2093750000000         7.225187740122086E-004
   73.4231250000000         7.090062372288835E-004
   73.6368750000000         6.633592788751748E-004
   73.8506250000000         5.865213768704520E-004
   74.0643750000000         4.808558722347863E-004
   74.2781250000000         3.499493870681480E-004
   74.4918750000000         1.983423238362970E-004
   74.7056250000000         3.121068340447102E-005
   74.9193750000000        -1.459729199018060E-004
   75.1331250000000        -3.277700963018384E-004
   75.3468750000000        -5.090720258645894E-004
   75.5606250000000        -6.853360955755391E-004
   75.7743750000000        -8.527468730956177E-004
   75.9881250000000        -1.008292247100935E-003
   76.2018750000000        -1.149754114693607E-003
   76.4156250000000        -1.275621474330961E-003
   76.6293750000000        -1.384941352281308E-003
   76.8431250000000        -1.477128902695038E-003
   77.0568750000000        -1.551761688639415E-003
   77.2706250000000        -1.608384209256010E-003
   77.4843750000000        -1.646347083436877E-003
   77.6981250000000        -1.664701103922283E-003
   77.9118750000000        -1.662160067685933E-003
   78.1256250000000        -1.637138516513284E-003
   78.3393750000000        -1.587862087287824E-003
   78.5531250000000        -1.512539948363881E-003
   78.7668750000000        -1.409581644719662E-003
   78.9806250000000        -1.277835343669851E-003
   79.1943750000000        -1.116821535729908E-003
   79.4081250000000        -9.269360290701720E-004
   79.6218750000000        -7.095986295665366E-004
   79.8356250000000        -4.673289831545915E-004
   80.0493750000000        -2.037381700748214E-004
   80.2631250000000         7.656693698397194E-005
   80.4768750000000         3.681606690086253E-004
   80.6906250000000         6.650426297295110E-004
   80.9043750000000         9.609275076035678E-004
   81.1181250000000         1.249554354029788E-003
   81.3318750000000         1.524986751066125E-003
   81.5456250000000         1.781875918102027E-003
   81.7593750000000         2.015662342964967E-003
   81.9731250000000         2.222697655074332E-003
   82.1868750000000         2.400276603799690E-003
   82.4006250000000         2.546578368794412E-003
   82.6143750000000         2.660526080012163E-003
   82.8281250000000         2.741582388764335E-003
   83.0418750000000         2.789506285187842E-003
   83.2556250000000         2.804101323343523E-003
   83.4693750000000         2.784987435177516E-003
   83.6831250000000         2.731427308959684E-003
   83.8968750000000         2.642233903430718E-003
   84.1106250000000         2.515778399815922E-003
   84.3243750000000         2.350108372550534E-003
   84.5381250000000         2.143175021206954E-003
   84.7518750000000         1.893156933586582E-003
   84.9656250000000         1.598857083878131E-003
   85.1793750000000         1.260140615299763E-003
   85.3931250000000         8.783742922049719E-004
   85.6068750000000         4.568250060977983E-004
   85.8206250000000         9.747924028125500E-007
   86.0343750000000        -4.812864318837695E-004
   86.2481250000000        -9.796219680106698E-004
   86.4618750000000        -1.481384618981318E-003
   86.6756250000000        -1.971937059813820E-003
   86.8893750000000        -2.435151464938044E-003
   87.1031250000000        -2.854069595840976E-003
   87.3168750000000        -3.211691434446816E-003
   87.5306250000000        -3.491849206335314E-003
   87.7443750000000        -3.680115161917940E-003
   87.9581250000000        -3.764686455567884E-003
   88.1718750000000        -3.737189308377777E-003
   88.3856250000000        -3.593347497235142E-003
   88.5993750000000        -3.333466924264215E-003
   88.8131250000000        -2.962698148099787E-003
   89.0268750000000        -2.491051619904976E-003
   89.2406250000000        -1.933155088731736E-003
   89.4543750000000        -1.307758225200943E-003
   89.6681250000000        -6.370049123288702E-004
   89.8818750000000         5.449215284472693E-005
   90.0956250000000         7.407278337458350E-004
   90.3093750000000         1.395476005400860E-003
   90.5231250000000         1.993494424527155E-003
   90.7368750000000         2.511699331434539E-003
   90.9506250000000         2.930247840075919E-003
   91.1643750000000         3.233471482781759E-003
   91.3781250000000         3.410612723669382E-003
   91.5918750000000         3.456327227074370E-003
   91.8056250000000         3.370927422801263E-003
   92.0193750000000         3.160356637563020E-003
   92.2331250000000         2.835896941485344E-003
   92.4468750000000         2.413627118745802E-003
   92.6606250000000         1.913659137190112E-003
   92.8743750000000         1.359191620135143E-003
   93.0881250000000         7.754267247278568E-004
   93.3018750000000         1.884022735326924E-004
   93.5156250000000        -3.762061120435611E-004
   93.7293750000000        -8.942577183163820E-004
   93.9431250000000        -1.344241060855137E-003
   94.1568750000000        -1.708240651522546E-003
   94.3706250000000        -1.972732958439259E-003
   94.5843750000000        -2.129175806757013E-003
   94.7981250000000        -2.174364273389989E-003
   95.0118750000000        -2.110535964986843E-003
   95.2256250000000        -1.945219161578821E-003
   95.4393750000000        -1.690828373730220E-003
   95.6531250000000        -1.364023085476655E-003
   95.8668750000000        -9.848564823043342E-004
   96.0806250000000        -5.757513807987514E-004
   96.2943750000000        -1.603499162480432E-004
   96.5081250000000         2.377087079116043E-004
   96.7218750000000         5.960224825210251E-004
   96.9356250000000         8.946099576464958E-004
   97.1493750000000         1.116979900289897E-003
   97.3631250000000         1.251027934117860E-003
   97.5768750000000         1.289707883143583E-003
   97.7906250000000         1.231436012483289E-003
   98.0043750000000         1.080199912491159E-003
   98.2181250000000         8.453597813959489E-004
   98.4318750000000         5.411474475115354E-004
   98.6456250000000         1.858865501610294E-004
   98.8593750000000        -1.990253496101833E-004
   99.0731250000000        -5.903165892255241E-004
   99.2868750000000        -9.641548212470331E-004
   99.5006250000000        -1.297497680386939E-003
   99.7143750000000        -1.569401256117133E-003
   99.9281250000000        -1.762209107549659E-003
   100.141875000000        -1.862551971845817E-003
   100.355625000000        -1.862100490012534E-003
   100.569375000000        -1.758029329111936E-003
   100.783125000000        -1.553169808965697E-003
   100.996875000000        -1.255848105486559E-003
   101.210625000000        -8.794257613003354E-004
   101.424375000000        -4.415770865053933E-004
   101.638125000000         3.664724274466381E-005
   101.851875000000         5.319105000780490E-004
   102.065625000000         1.019768436271699E-003
   102.279375000000         1.475869434671897E-003
   102.493125000000         1.877113477879091E-003
   102.706875000000         2.202714820585987E-003
   102.920625000000         2.435123888721278E-003
   103.134375000000         2.560776224263822E-003
   103.348125000000         2.570648963108515E-003
   103.561875000000         2.460617147091872E-003
   103.775625000000         2.231612127063841E-003
   103.989375000000         1.889591735780200E-003
   104.203125000000         1.445336518569579E-003
   104.416875000000         9.140882428626943E-004
   104.630625000000         3.150466846709690E-004
   104.844375000000        -3.292608689843313E-004
   105.058125000000        -9.937248592324604E-004
   105.271875000000        -1.651502099450558E-003
   105.485625000000        -2.274956100354679E-003
   105.699375000000        -2.836674740880050E-003
   105.913125000000        -3.310545868673867E-003
   106.126875000000        -3.672864071871932E-003
   106.340625000000        -3.903432933662222E-003
   106.554375000000        -3.986617650434208E-003
   106.768125000000        -3.912294354752780E-003
   106.981875000000        -3.676636372740509E-003
   107.195625000000        -3.282675452110815E-003
   107.409375000000        -2.740578963039560E-003
   107.623125000000        -2.067593000809957E-003
   107.836875000000        -1.287616415608320E-003
   108.050625000000        -4.303915816586386E-004
   108.264375000000         4.696769949344381E-004
   108.478125000000         1.375037183254015E-003
   108.691875000000         2.246769549242278E-003
   108.905625000000         3.046540285272428E-003
   109.119375000000         3.738612678202407E-003
   109.333125000000         4.291789679792884E-003
   109.546875000000         4.681156199787076E-003
   109.760625000000         4.889496381071535E-003
   109.974375000000         4.908278550684916E-003
   110.188125000000         4.738127948037970E-003
   110.401875000000         4.388742870452390E-003
   110.615625000000         3.878250807514140E-003
   110.829375000000         3.232044049174760E-003
   111.043125000000         2.481175369751926E-003
   111.256875000000         1.660429925804631E-003
   111.470625000000         8.062160425689325E-004
   111.684375000000        -4.556759241135157E-005
   111.898125000000        -8.615293333888765E-004
   112.111875000000        -1.612499926979244E-003
   112.325625000000        -2.274844466761330E-003
   112.539375000000        -2.831285765040966E-003
   112.753125000000        -3.271197748584040E-003
   112.966875000000        -3.590374908277469E-003
   113.180625000000        -3.790330452908521E-003
   113.394375000000        -3.877217208720341E-003
   113.608125000000        -3.860497487035971E-003
   113.821875000000        -3.751507976425288E-003
   114.035625000000        -3.562071237822345E-003
   114.249375000000        -3.303296006992161E-003
   114.463125000000        -2.984685112338680E-003
   114.676875000000        -2.613634659060586E-003
   114.890625000000        -2.195364653030681E-003
   115.104375000000        -1.733273728208981E-003
   115.318125000000        -1.229663819293070E-003
   115.531875000000        -6.867391729372166E-004
   115.745625000000        -1.077522058417058E-004
   115.959375000000         5.018503282253038E-004
   116.173125000000         1.133431573621899E-003
   116.386875000000         1.774458635884124E-003
   116.600625000000         2.408200080027619E-003
   116.814375000000         3.013902473719712E-003
   117.028125000000         3.567474963935149E-003
   117.241875000000         4.042660048811626E-003
   117.455625000000         4.412618527823159E-003
   117.669375000000         4.651811908275035E-003
   117.883125000000         4.738030650645592E-003
   118.096875000000         4.654394984065928E-003
   118.310625000000         4.391148827660805E-003
   118.524375000000         3.947077396758859E-003
   118.738125000000         3.330404642178052E-003
   118.951875000000         2.559065630516518E-003
   119.165625000000         1.660297970156159E-003
   119.379375000000         6.695511656346788E-004
   119.593125000000        -3.712314219799995E-004
   119.806875000000        -1.415851356727338E-003
   120.020625000000        -2.416464322282407E-003
   120.234375000000        -3.326377741839500E-003
   120.448125000000        -4.102837843788519E-003
   120.661875000000        -4.709606225725052E-003
   120.875625000000        -5.119140996991878E-003
   121.089375000000        -5.314227216330260E-003
   121.303125000000        -5.288942989245283E-003
   121.516875000000        -5.048897690917307E-003
   121.730625000000        -4.610733143409791E-003
   121.944375000000        -4.000932747303862E-003
   122.158125000000        -3.254033218749699E-003
   122.371875000000        -2.410374869382261E-003
   122.585625000000        -1.513556239735242E-003
   122.799375000000        -6.077753321302200E-004
   123.013125000000         2.647581777292549E-004
   123.226875000000         1.066167213776381E-003
   123.440625000000         1.764859892826656E-003
   123.654375000000         2.336976774088831E-003
   123.868125000000         2.767260610282483E-003