  -1.60312500000000        -1.459874437388351E-024
  -1.38937500000000        -5.537541774436804E-022
  -1.17562500000000        -5.205533842802129E-021
 -0.961875000000000        -2.997874750211224E-020
 -0.748125000000000        -1.342521054185308E-019
 -0.534375000000000        -5.025108020686968E-019
 -0.320625000000000        -1.622360487282305E-018
 -0.106875000000000        -4.605418432165142E-018
  0.106875000000000        -1.167180073208014E-017
  0.320625000000000        -2.677346135965124E-017
  0.534375000000000        -5.628946894023501E-017
  0.748125000000000        -1.096962856461114E-016
  0.961875000000000        -2.001047035594823E-016
   1.17562500000000        -3.445224856580880E-016
   1.38937500000000        -5.636870723814213E-016
   1.60312500000000        -8.813323595050151E-016
   1.81687500000000        -1.322837711412102E-015
   2.03062500000000        -1.913282096071900E-015
   2.24437500000000        -2.675027709918436E-015
   2.45812500000000        -3.625085695765638E-015
   2.67187500000000        -4.772559931932234E-015
   2.88562500000000        -6.116519626720191E-015
   3.09937500000000        -7.644597417648013E-015
   3.31312500000000        -9.332596059110388E-015
   3.52687500000000        -1.114537547932753E-014
   3.74062500000000        -1.303890042193464E-014
   3.95437500000000        -1.496319963672673E-014
   4.16812500000000        -1.686620752178642E-014
   4.38187500000000        -1.869774656223762E-014
   4.59562500000000        -2.041316350917053E-014
   4.80937500000000        -2.197640992900487E-014
   5.02312500000000        -2.336181331688233E-014
   5.23687500000000        -2.455450051237776E-014
   5.45062500000000        -2.554968967719145E-014
   5.66437500000000        -2.635081820500102E-014
   5.87812500000000        -2.696707455035941E-014
   6.09187500000000        -2.741109612782598E-014
   6.30562500000000        -2.769722196804182E-014
   6.51937500000000        -2.784078122037080E-014
   6.73312500000000        -2.785875346924480E-014
   6.94687500000000        -2.777169385465816E-014
   7.16062500000000        -2.760648808489804E-014
   7.37437500000000        -2.739934882303600E-014
   7.58812500000000        -2.719832847218752E-014
   7.80187500000000        -2.706439316860735E-014
   8.01562500000000        -2.707062952197962E-014
   8.22937500000000        -2.729919215454570E-014
   8.44312500000000        -2.783609243193294E-014
   8.65687500000000        -2.876434556747546E-014
   8.87062500000000        -3.015635812209848E-014
   9.08437500000000        -3.206684854800114E-014
   9.29812500000000        -3.452725291154692E-014
   9.51187500000000        -3.754274965509494E-014
   9.72562500000000        -4.109232278898641E-014
   9.93937500000000        -4.513205510299863E-014
   10.1531250000000        -4.960124031133617E-014
   10.3668750000000        -5.443017250846014E-014
   10.5806250000000        -5.954848940334180E-014
   10.7943750000000        -6.489260747024818E-014
   11.0081250000000        -7.041112162823791E-014
   11.2218750000000        -7.606739644595414E-014
   11.4356250000000        -8.183906634017126E-014
   11.6493750000000        -8.771498568801879E-014
   11.8631250000000        -9.369043335816758E-014
   12.0768750000000        -9.976188955514535E-014
   12.2906250000000        -1.059228066398043E-013
   12.5043750000000        -1.121614996585357E-013
   12.7181250000000        -1.184619648903808E-013
   12.9318750000000        -1.248075882893109E-013
   13.1456250000000        -1.311872467952332E-013
   13.3593750000000        -1.376024981826651E-013
   13.5731250000000        -1.440743759053472E-013
   13.7868750000000        -1.506482273980066E-013
   14.0006250000000        -1.573951430630672E-013
   14.2143750000000        -1.644092191866563E-013
   14.4281250000000        -1.718006214181606E-013
   14.6418750000000        -1.796852405363425E-013
   14.8556250000000        -1.881722955845544E-013
   15.0693750000000        -1.973517586116285E-013
   15.2831250000000        -2.072836508753205E-013
   15.4968750000000        -2.179909739209782E-013
   15.7106250000000        -2.294573566418416E-013
   15.9243750000000        -2.416298548045777E-013
   16.1381250000000        -2.544263380269178E-013
   16.3518750000000        -2.677462921120148E-013
   16.5656250000000        -2.814832007206637E-013
   16.7793750000000        -2.955363547935265E-013
   16.9931250000000        -3.098204468191819E-013
   17.2068750000000        -3.242715159713130E-013
   17.4206250000000        -3.388485182748033E-013
   17.6343750000000        -3.535307279823984E-013
   17.8481250000000        -3.683119614955820E-013
   18.0618750000000        -3.831929227520346E-013
   18.2756250000000        -3.981733807460905E-013
   18.4893750000000        -4.132460653345893E-013
   18.7031250000000        -4.283931751591409E-013
   18.9168750000000        -4.435863341438996E-013
   19.1306250000000        -4.587900284637328E-013
   19.3443750000000        -4.739676571019344E-013
   19.5581250000000        -4.890891308580751E-013
   19.7718750000000        -5.041385141977063E-013
   19.9856250000000        -5.191203934313052E-013
   20.1993750000000        -5.340637693191781E-013
   20.4131250000000        -5.490228552914492E-013
   20.6268750000000        -5.640746749252390E-013
   20.8406250000000        -5.793138041780110E-013
   21.0543750000000        -5.948451610034703E-013
   21.2681250000000        -6.107759395080955E-013
   21.4818750000000        -6.272077124103984E-013
   21.6956250000000        -6.442296555725651E-013
   21.9093750000000        -6.619135884727398E-013
   22.1231250000000        -6.803111863796903E-013
   22.3368750000000        -6.994533337636672E-013
   22.5506250000000        -7.193512496483600E-013
   22.7643750000000        -7.399990048071942E-013
   22.9781250000000        -7.613768577087884E-013
   23.1918750000000        -7.834548621365038E-013
   23.4056250000000        -8.061964038890022E-013
   23.6193750000000        -8.295612974508987E-013
   23.8331250000000        -8.535083809862051E-013
   24.0468750000000        -8.779974562355718E-013
   24.2606250000000        -9.029907159202777E-013
   24.4743750000000        -9.284536904182525E-013
   24.6881250000000        -9.543556298436022E-013
   24.9018750000000        -9.806697199217948E-013
   25.1156250000000        -1.007372962323904E-012
   25.3293750000000        -1.034446131933671E-012
   25.5431250000000        -1.061873976285136E-012
   25.7568750000000        -1.089645726800336E-012
   25.9706250000000        -1.117756372851163E-012
   26.1843750000000        -1.146208687025277E-012
   26.3981250000000        -1.175016032303828E-012
   26.6118750000000        -1.204205772825723E-012
   26.8256250000000        -1.233822754345940E-012
   27.0393750000000        -1.263932192953899E-012
   27.2531250000000        -1.294621261416627E-012
   27.4668750000000        -1.325998287456171E-012
   27.6806250000000        -1.358188976237525E-012
   27.8943750000000        -1.391329186223418E-012
   28.1081250000000        -1.425554101453917E-012
   28.3218750000000        -1.460984694396281E-012
   28.5356250000000        -1.497712298642193E-012
   28.7493750000000        -1.535783333321841E-012
   28.9631250000000        -1.575186322727185E-012
   29.1768750000000        -1.615843520749054E-012
   29.3906250000000        -1.657609622098658E-012
   29.6043750000000        -1.700279010246316E-012
   29.8181250000000        -1.743602743808445E-012
   30.0318750000000        -1.787314897751416E-012
   30.2456250000000        -1.831166234586947E-012
   30.4593750000000        -1.874962131836738E-012
   30.6731250000000        -1.918599919257752E-012
   30.8868750000000        -1.962099836132466E-012
   31.1006250000000        -2.005623409139820E-012
   31.3143750000000        -2.049473527745915E-012
   31.5281250000000        -2.094072022273641E-012
   31.7418750000000        -2.139912885543376E-012
   31.9556250000000        -2.187492833783199E-012
   32.1693750000000        -2.237224681947694E-012
   32.3831250000000        -2.289343299664397E-012
   32.5968750000000        -2.343817372406471E-012
   32.8106250000000        -2.400282511909128E-012
   33.0243750000000        -2.458011746223104E-012
   33.2381250000000        -2.515937347100203E-012
   33.4518750000000        -2.572733178126583E-012
   33.6656250000000        -2.626959369027972E-012
   33.8793750000000        -2.677261673591730E-012
   34.0931250000000        -2.722607609630786E-012
   34.3068750000000        -2.762531417330420E-012
   34.5206250000000        -2.797351713297099E-012
   34.7343750000000        -2.828322029718517E-012
   34.9481250000000        -2.857675521033921E-012
   35.1618750000000        -2.888532560914803E-012
   35.3756250000000        -2.924654014334112E-012
   35.5893750000000        -2.970042475380247E-012
   35.8031250000000        -3.028417052241211E-012
   36.0168750000000        -3.102611545845087E-012
   36.2306250000000        -3.193967718360602E-012
   36.4443750000000        -3.301810645012747E-012
   36.6581250000000        -3.423099092826500E-012
   36.8718750000000        -3.552336783803160E-012
   37.0856250000000        -3.681810102411640E-012
   37.2993750000000        -3.802183874528489E-012
   37.5131250000000        -3.903442150550335E-012
   37.7268750000000        -3.976110404903338E-012
   37.9406250000000        -4.012644312213374E-012
   38.1543750000000        -4.008826835707568E-012
   38.3681250000000        -3.964985792084403E-012
   38.5818750000000        -3.886835697510721E-012
   38.7956250000000        -3.785764785017478E-012
   39.0093750000000        -3.678431840282895E-012
   39.2231250000000        -3.585607070514433E-012
   39.4368750000000        -3.530280146606105E-012
   39.6506250000000        -3.535158293078163E-012
   39.8643750000000        -3.619776028744882E-012
   40.0781250000000        -3.797522587079099E-012
   40.2918750000000        -4.072950148097350E-012
   40.5056250000000        -4.439744236126598E-012
   40.7193750000000        -4.879709810260385E-012
   40.9331250000000        -5.363049787782425E-012
   41.1468750000000        -5.850090168242207E-012
   41.3606250000000        -6.294448298012205E-012
   41.5743750000000        -6.647462562806192E-012
   41.7881250000000        -6.863523500671838E-012
   42.0018750000000        -6.905790278483518E-012
   42.2156250000000        -6.751664521689865E-012
   42.4293750000000        -6.397344975671640E-012
   42.6431250000000        -5.860813945609632E-012
   42.8568750000000        -5.182716348490663E-012
   43.0706250000000        -4.424778220707413E-012
   43.2843750000000        -3.665660514865190E-012
   43.4981250000000        -2.994432341544062E-012
   43.7118750000000        -2.502143600353461E-012
   43.9256250000000        -2.272246834903482E-012
   44.1393750000000        -2.370826126386655E-012
   44.3531250000000        -2.837706739933917E-012
   44.5668750000000        -3.679520752760131E-012
   44.7806250000000        -4.865679518680784E-012
   44.9943750000000        -6.327958074836371E-012
   45.2081250000000        -7.964047633709380E-012
   45.4218750000000        -9.645011929589763E-012
   45.6356250000000        -1.122613630353583E-011
   45.8493750000000        -1.256023506354453E-011
   46.0631250000000        -1.351213562290894E-011
   46.2768750000000        -1.397283410450756E-011
   46.4906250000000        -1.387175416195199E-011
   46.7043750000000        -1.318565844090191E-011
   46.9181250000000        -1.194306020480445E-011
   47.1318750000000        -1.022344017720840E-011
   47.3456250000000        -8.151146229503502E-012
   47.5593750000000        -5.884480236950056E-012
   47.7731250000000        -3.601082852376816E-012
   47.9868750000000        -1.481235132041852E-012
   48.2006250000000         3.089678216460173E-013
   48.4143750000000         1.632510595991044E-012
   48.6281250000000         2.392518006553706E-012
   48.8418750000000         2.538012506230163E-012
   49.0556250000000         2.063568875379024E-012
   49.2693750000000         1.002910335398936E-012
   49.4831250000000        -5.825895437358953E-013
   49.6968750000000        -2.618658016855306E-012
   49.9106250000000        -5.033583460744948E-012
   50.1243750000000        -7.771436356864271E-012
   50.3381250000000        -1.080009801870872E-011
   50.5518750000000        -1.411160091884169E-011
   50.7656250000000        -1.771320973982611E-011
   50.9793750000000        -2.160900983323704E-011
   51.1931250000000        -2.577339519192855E-011
   51.4068750000000        -3.011957656549253E-011
   51.6206250000000        -3.446783057235884E-011
   51.8343750000000        -3.851942669112534E-011
   52.0481250000000        -4.184275237000615E-011
   52.2618750000000        -4.387789915511180E-011
   52.4756250000000        -4.396474235082209E-011
   52.6893750000000        -4.139731950586867E-011
   52.9031250000000        -3.550419282239596E-011
   53.1168750000000        -2.575071124974846E-011
   53.3306250000000        -1.185504443991612E-011
   53.5443750000000         6.093976283482406E-012
   53.7581250000000         2.753226196674291E-011
   53.9718750000000         5.134595894526284E-011
   54.1856250000000         7.584389106149997E-011
   54.3993750000000         9.879171145839934E-011
   54.6131250000000         1.175181719462676E-010
   54.8268750000000         1.290974334228138E-010
   55.0406250000000         1.306031267377652E-010
   55.2543750000000         1.194206126187649E-010
   55.4681250000000         9.359450185503463E-011
   55.6818750000000         5.218006789261373E-011
   55.8956250000000        -4.439143856721033E-012
   56.1093750000000        -7.430836070571329E-011
   56.3231250000000        -1.537732508361619E-010
   56.5368750000000        -2.375007422819072E-010
   56.7506250000000        -3.186734401762152E-010
   56.9643750000000        -3.893678105049426E-010
   57.1781250000000        -4.411087886171455E-010
   57.3918750000000        -4.655741866288319E-010
   57.6056250000000        -4.554030502240304E-010
   57.8193750000000        -4.050450046831131E-010
   58.0331250000000        -3.115746958729849E-010
   58.2468750000000        -1.753885208095924E-010
   58.4606250000000        -7.013593939443297E-013
   58.6743750000000         2.042302734511325E-010
   58.8881250000000         4.272153563114966E-010
   59.1018750000000         6.525982910447345E-010
   59.3156250000000         8.620943741683588E-010
   59.5293750000000         1.035960585621776E-009
   59.7431250000000         1.154438249226719E-009
   59.9568750000000         1.199373807051807E-009
   60.1706250000000         1.155899638564500E-009
   60.3843750000000         1.014041231683967E-009
   60.5981250000000         7.701120627067827E-010
   60.8118750000000         4.277643130693409E-010
   61.0256250000000        -1.417996123242163E-012
   61.2393750000000        -4.978678909138616E-010
   61.4531250000000        -1.034573473059280E-009
   61.6668750000000        -1.578209571272439E-009
   61.8806250000000        -2.090823090140740E-009
   62.0943750000000        -2.531989691338155E-009
   62.3081250000000        -2.861322496514335E-009
   62.5218750000000        -3.041185023391313E-009
   62.7356250000000        -3.039442672182482E-009
   62.9493750000000        -2.832080838224344E-009
   63.1631250000000        -2.405523091477405E-009
   63.3768750000000        -1.758498731183687E-009
   63.5906250000000        -9.033334240021065E-010
   63.8043750000000         1.334329826822523E-010
   64.0181250000000         1.311163791328300E-009
   64.2318750000000         2.576006087534001E-009
   64.4456250000000         3.862530264709815E-009
   64.6593750000000         5.096094480618606E-009
   64.8731250000000         6.195874126872786E-009
   65.0868750000000         7.078473731212827E-009
   65.3006250000000         7.662018350215664E-009
   65.5143750000000         7.870602022288220E-009
   65.7281250000000         7.638950754307639E-009
   65.9418750000000         6.917135688859559E-009
   66.1556250000000         5.675148178935791E-009
   66.3693750000000         3.907123190152710E-009
   66.5831250000000         1.634972716616450E-009
   66.7968750000000        -1.088830053888861E-009
   67.0106250000000        -4.179587999260275E-009
   67.2243750000000        -7.520110886440694E-009
   67.4381250000000        -1.096209393710844E-008
   67.6518750000000        -1.432935805276117E-008
   67.8656250000000        -1.742310000730917E-008
   68.0793750000000        -2.002920891272170E-008
   68.2931250000000        -2.192758836180319E-008
   68.5068750000000        -2.290328619987326E-008
   68.7206250000000        -2.275908311845255E-008
   68.9343750000000        -2.132903705973238E-008
   69.1481250000000        -1.849233465600622E-008
   69.3618750000000        -1.418667663234104E-008
   69.5756250000000        -8.420334361549308E-009
   69.7893750000000        -1.281971514787617E-009
   70.0031250000000         7.052662428500070E-009
   70.2168750000000         1.631798503845536E-008
   70.4306250000000         2.616045937509601E-008
   70.6443750000000         3.614557722248282E-008
   70.8581250000000         4.577017329783747E-008
   71.0718750000000         5.448000316237718E-008
   71.2856250000000         6.169220020702191E-008
   71.4993750000000         6.682190518884011E-008
   71.7131250000000         6.931205618625910E-008
   71.9268750000000         6.866505832279811E-008
   72.1406250000000         6.447484040644103E-008
   72.3543750000000         5.645766597618832E-008
   72.5681250000000         4.448001117137536E-008
   72.7818750000000         2.858185829907609E-008
   72.9956250000000         8.993883359050843E-009
   73.2093750000000        -1.385276617073103E-008
   73.4231250000000        -3.932510988562463E-008
   73.6368750000000        -6.659603406445068E-008
   73.8506250000000        -9.466128841951659E-008
   74.0643750000000        -1.223655812775957E-007
   74.2781250000000        -1.484371355295438E-007
   74.4918750000000        -1.715296466979073E-007
   74.7056250000000        -1.902702025514108E-007
   74.9193750000000        -2.033113998863373E-007
   75.1331250000000        -2.093856445165033E-007
   75.3468750000000        -2.073594576780536E-007
   75.5606250000000        -1.962855443735763E-007
   75.7743750000000        -1.754504106617471E-007
   75.9881250000000        -1.444154470126259E-007
   76.2018750000000        -1.030496185557842E-007
   76.4156250000000        -5.155221100058745E-008
   76.6293750000000         9.535540107661774E-009
   76.8431250000000         7.933067605806931E-008
   77.0568750000000         1.566208690548343E-007
   77.2706250000000         2.398886940717713E-007
   77.4843750000000         3.273471365977549E-007
   77.6981250000000         4.169852129479466E-007
   77.9118750000000         5.066221896149407E-007
   78.1256250000000         5.939685669041787E-007
   78.3393750000000         6.766917537569032E-007
   78.5531250000000         7.524842144012064E-007
   78.7668750000000         8.191318171136635E-007
   78.9806250000000         8.745801591350619E-007
   79.1943750000000         9.169967724286163E-007
   79.4081250000000         9.448273204236555E-007
   79.6218750000000         9.568441602584496E-007
   79.8356250000000         9.521859499669537E-007
   80.0493750000000         9.303873063098774E-007
   80.2631250000000         8.913978480627537E-007
   80.4768750000000         8.355902754059193E-007
   80.6906250000000         7.637574261091984E-007
   80.9043750000000         6.770985054975059E-007
   81.1181250000000         5.771949066880834E-007
   81.3318750000000         4.659762220414295E-007
   81.5456250000000         3.456772019688152E-007
   81.7593750000000         2.187865518727886E-007
   81.9731250000000         8.798858209775726E-008
   82.1868750000000        -4.390115098376133E-008
   82.4006250000000        -1.740049445859561E-007
   82.6143750000000        -2.994553806895728E-007
   82.8281250000000        -4.174695281573697E-007
   83.0418750000000        -5.254231986382067E-007
   83.2556250000000        -6.209233880592509E-007
   83.4693750000000        -7.018769046786803E-007
   83.6831250000000        -7.665530918238636E-007
   83.8968750000000        -8.136385175881491E-007
   84.1106250000000        -8.422815431838017E-007
   84.3243750000000        -8.521248118266642E-007
   84.5381250000000        -8.433239317068112E-007
   84.7518750000000        -8.165509642123673E-007
   84.9656250000000        -7.729817691550099E-007
   85.1793750000000        -7.142667914560752E-007
   85.3931250000000        -6.424854800660184E-007
   85.6068750000000        -5.600851844298657E-007
   85.8206250000000        -4.698060457522551E-007
   86.0343750000000        -3.745940552444728E-007
   86.2481250000000        -2.775050536026283E-007
   86.4618750000000        -1.816029601627454E-007
   86.6756250000000        -8.985591456400309E-008
   86.8893750000000        -5.034261484617987E-009
   87.1031250000000         7.038560994807893E-008
   87.3168750000000         1.343076580968065E-007
   87.5306250000000         1.850891774866116E-007
   87.7443750000000         2.215972045564044E-007
   87.9581250000000         2.432457762101350E-007
   88.1718750000000         2.500122290345398E-007
   88.3856250000000         2.424315848753739E-007
   88.5993750000000         2.215689947584261E-007
   88.8131250000000         1.889711662018148E-007
   89.0268750000000         1.465986344441501E-007
   89.2406250000000         9.674161102724914E-008
   89.4543750000000         4.192291002397099E-008
   89.6681250000000        -1.520792687535866E-008
   89.8818750000000        -7.198474434473396E-008
   90.0956250000000        -1.258343300467120E-007
   90.3093750000000        -1.743806066742936E-007
   90.5231250000000        -2.155388712362816E-007
   90.7368750000000        -2.475959369897796E-007
   90.9506250000000        -2.692726842868060E-007
   91.1643750000000        -2.797663559506542E-007
   91.3781250000000        -2.787709013390857E-007
   91.5918750000000        -2.664747329601010E-007
   91.8056250000000        -2.435363560351967E-007
   92.0193750000000        -2.110394070317968E-007
   92.2331250000000        -1.704296341263838E-007
   92.4468750000000        -1.234372164493983E-007
   92.6606250000000        -7.198850225249653E-008
   92.8743750000000        -1.811171117731208E-008
   93.0881250000000         3.615863265477473E-008
   93.3018750000000         8.887380307453970E-008
   93.5156250000000         1.382550599683891E-007
   93.7293750000000         1.827659891323562E-007
   93.9431250000000         2.211697758196664E-007
   94.1568750000000         2.525690661104199E-007
   94.3706250000000         2.764270466187960E-007
   94.5843750000000         2.925693964847326E-007
   94.7981250000000         3.011677776430234E-007
   95.0118750000000         3.027064740838558E-007
   95.2256250000000         2.979346182350980E-007
   95.4393750000000         2.878071116136054E-007
   95.6531250000000         2.734178274653419E-007
   95.8668750000000         2.559289575229663E-007
   96.0806250000000         2.365004281820532E-007
   96.2943750000000         2.162231703160937E-007
   96.5081250000000         1.960596992526531E-007
   96.7218750000000         1.767949733813117E-007
   96.9356250000000         1.589998839219351E-007
   97.1493750000000         1.430090206385380E-007
   97.3631250000000         1.289135959869892E-007
   97.5768750000000         1.165696295824766E-007
   97.7906250000000         1.056207295604567E-007
   98.0043750000000         9.553408723909110E-008
   98.2181250000000         8.564765210307787E-008
   98.4318750000000         7.522589698080720E-008
   98.6456250000000         6.352113610628348E-008
   98.8593750000000         4.983703618984306E-008
   99.0731250000000         3.359077487047051E-008
   99.2868750000000         1.437026216504506E-008
   99.5006250000000        -8.017043056352166E-009
   99.7143750000000        -3.350691226290038E-008
   99.9281250000000        -6.175547248827863E-008
   100.141875000000        -9.213282736444616E-008
   100.355625000000        -1.237345724282951E-007
   100.569375000000        -1.554117192185206E-007
   100.783125000000        -1.858185542508948E-007
   100.996875000000        -2.134769051721277E-007
   101.210625000000        -2.368542173102100E-007
   101.424375000000        -2.544518192572229E-007
   101.638125000000        -2.648988430345980E-007
   101.851875000000        -2.670465331496659E-007
   102.065625000000        -2.600571981559683E-007
   102.279375000000        -2.434818893952564E-007
   102.493125000000        -2.173210819706219E-007
   102.706875000000        -1.820632105738558E-007
   102.920625000000        -1.386968806929583E-007
   103.134375000000        -8.869390867387536E-008
   103.348125000000        -3.396198679175961E-008
   103.561875000000         2.323236261786940E-008
   103.775625000000         8.036789707783625E-008
   103.989375000000         1.347952132146007E-007
   104.203125000000         1.838793290216220E-007
   104.416875000000         2.251503498513356E-007
   104.630625000000         2.564531967239916E-007
   104.844375000000         2.760868350763292E-007
   105.058125000000         2.829235221066507E-007
   105.271875000000         2.764993296045319E-007
   105.485625000000         2.570685881599251E-007
   105.699375000000         2.256168802861163E-007
   105.913125000000         1.838296786274264E-007
   106.126875000000         1.340165326003246E-007
   106.340625000000         7.899367016679386E-008
   106.554375000000         2.193079679236793E-008
   106.768125000000        -3.382947048389594E-008
   106.981875000000        -8.496890254557035E-008
   107.195625000000        -1.283955076548070E-007
   107.409375000000        -1.614369756223810E-007
   107.623125000000        -1.820128585717718E-007
   107.836875000000        -1.887736239155378E-007
   108.050625000000        -1.811965685265768E-007
   108.264375000000        -1.596311945173569E-007
   108.478125000000        -1.252898556302271E-007
   108.691875000000        -8.018307870329587E-008
   108.905625000000        -2.700270142881470E-008
   109.119375000000         3.104041794576771E-008
   109.333125000000         9.041413365180192E-008
   109.546875000000         1.474855994939717E-007
   109.760625000000         1.987503462514290E-007
   109.974375000000         2.410546849222505E-007
   110.188125000000         2.717965228049558E-007
   110.401875000000         2.890909849684506E-007
   110.615625000000         2.918895174442673E-007
   110.829375000000         2.800442607748385E-007
   111.043125000000         2.543132095846386E-007
   111.256875000000         2.163057526752625E-007
   111.470625000000         1.683723257589832E-007
   111.684375000000         1.134458040162537E-007
   111.898125000000         5.484562743654917E-008
   112.111875000000        -3.941761662812019E-009
   112.325625000000        -5.949097612843118E-008
   112.539375000000        -1.086585250523828E-007
   112.753125000000        -1.487813430352424E-007
   112.966875000000        -1.778396169567393E-007
   113.180625000000        -1.945731844390305E-007
   113.394375000000        -1.985442014778953E-007
   113.608125000000        -1.901426991520331E-007
   113.821875000000        -1.705357742118206E-007
   114.035625000000        -1.415651748586366E-007
   114.249375000000        -1.056016506175295E-007
   114.463125000000        -6.536736726500999E-008
   114.676875000000        -2.373973245469571E-008
   114.890625000000         1.644900573335884E-008
   115.104375000000         5.260209569833129E-008
   115.318125000000         8.252539449881403E-008
   115.531875000000         1.045601787801031E-007
   115.745625000000         1.176734327319623E-007
   115.959375000000         1.215007794675050E-007
   116.173125000000         1.163408690050097E-007
   116.386875000000         1.031036528998483E-007
   116.600625000000         8.321828341767813E-008
   116.814375000000         5.850912668117167E-008
   117.028125000000         3.105037823478059E-008
   117.241875000000         3.010885414322675E-009
   117.455625000000        -2.349904218752719E-008
   117.669375000000        -4.656779387401655E-008
   117.883125000000        -6.460011492989312E-008
   118.096875000000        -7.640501451626842E-008
   118.310625000000        -8.124936967299598E-008
   118.524375000000        -7.887558490529596E-008
   118.738125000000        -6.948455910030165E-008
   118.951875000000        -5.368784729761872E-008
   119.165625000000        -3.243507974911785E-008
   119.379375000000        -6.924256593654018E-009
   119.593125000000         2.149662691448143E-008
   119.806875000000         5.142808825501750E-008
   120.020625000000         8.150990667355876E-008
   120.234375000000         1.104975020914458E-007
   120.448125000000         1.373191086857216E-007
   120.661875000000         1.611110017908040E-007
   120.875625000000         1.812302499796189E-007
   121.089375000000         1.972465953929516E-007
   121.303125000000         2.089169278266571E-007
   121.516875000000         2.161472552954604E-007
   121.730625000000         2.189479723283106E-007
   121.944375000000         2.173885253364317E-007
   122.158125000000         2.115572658565247E-007
   122.371875000000         2.015314157379178E-007
   122.585625000000         1.873607407157917E-007
   122.799375000000         1.690668766072958E-007
   123.013125000000         1.466584378693486E-007
   123.226875000000         1.201602347172784E-007
   123.440625000000         8.965330102038779E-008
   123.654375000000         5.532113986809417E-008
   123.868125000000         1.749674386767294E-008