  -1.60312500000000         2.319876420967009E-019
  -1.38937500000000         2.999507324449622E-017
  -1.17562500000000         2.260390544792450E-016
 -0.961875000000000         1.152600389207540E-015
 -0.748125000000000         4.708441248330756E-015
 -0.534375000000000         1.619348285765890E-014
 -0.320625000000000         4.802071642565030E-014
 -0.106875000000000         1.249527616696378E-013
  0.106875000000000         2.897331241955796E-013
  0.320625000000000         6.075498228303376E-013
  0.534375000000000         1.167781244597114E-012
  0.748125000000000         2.081932589504303E-012
  0.961875000000000         3.476678578072787E-012
   1.17562500000000         5.481683150273874E-012
   1.38937500000000         8.211526805117533E-012
   1.60312500000000         1.174598670812560E-011
   1.81687500000000         1.610936745301821E-011
   2.03062500000000         2.125280390598142E-011
   2.24437500000000         2.704513414916817E-011
   2.45812500000000         3.327175075894969E-011
   2.67187500000000         3.964464507839283E-011
   2.88562500000000         4.582331114942483E-011
   3.09937500000000         5.144719304222128E-011
   3.31312500000000         5.617040362074678E-011
   3.52687500000000         5.970505799474184E-011
   3.74062500000000         6.185298061580453E-011
   3.95437500000000         6.253989137510038E-011
   4.16812500000000         6.182209007733936E-011
   4.38187500000000         5.989007336396942E-011
   4.59562500000000         5.705212099263651E-011
   4.80937500000000         5.369341980890888E-011
   5.02312500000000         5.023993181232662E-011
   5.23687500000000         4.710288100793214E-011
   5.45062500000000         4.463327562223311E-011
   5.66437500000000         4.308652045232198E-011
   5.87812500000000         4.259377388851549E-011
   6.09187500000000         4.316092965298429E-011
   6.30562500000000         4.467868172115051E-011
   6.51937500000000         4.694889527650866E-011
   6.73312500000000         4.973361960537509E-011
   6.94687500000000         5.279036159507075E-011
   7.16062500000000         5.592148318925630E-011
   7.37437500000000         5.900323512833625E-011
   7.58812500000000         6.200625104049829E-011
   7.80187500000000         6.499779428634135E-011
   8.01562500000000         6.812319659115247E-011
   8.22937500000000         7.157922762848298E-011
   8.44312500000000         7.557352180431146E-011
   8.65687500000000         8.028807432664723E-011
   8.87062500000000         8.583809768085998E-011
   9.08437500000000         9.225349363245511E-011
   9.29812500000000         9.946109729446198E-011
   9.51187500000000         1.072916551032308E-010
   9.72562500000000         1.154964723323169E-010
   9.93937500000000         1.237731802878760E-010
   10.1531250000000         1.318023299485463E-010
   10.3668750000000         1.392814049500777E-010
   10.5806250000000         1.459475247910392E-010
   10.7943750000000         1.516040692478145E-010
   11.0081250000000         1.561318630029957E-010
   11.2218750000000         1.594858264926436E-010
   11.4356250000000         1.616921309522846E-010
   11.6493750000000         1.628353874151448E-010
   11.8631250000000         1.630480636185470E-010
   12.0768750000000         1.624991178314219E-010
   12.2906250000000         1.613853225868868E-010
   12.5043750000000         1.599322178131465E-010
   12.7181250000000         1.583834156724623E-010
   12.9318750000000         1.570092372731400E-010
   13.1456250000000         1.560944359791131E-010
   13.3593750000000         1.559324308258063E-010
   13.5731250000000         1.568055878611493E-010
   13.7868750000000         1.589649626281090E-010
   14.0006250000000         1.625998885846698E-010
   14.2143750000000         1.678147437375696E-010
   14.4281250000000         1.746029627244834E-010
   14.6418750000000         1.828335489667076E-010
   14.8556250000000         1.922555751947281E-010
   15.0693750000000         2.025080712078984E-010
   15.2831250000000         2.131576035300327E-010
   15.4968750000000         2.237345784039541E-010
   15.7106250000000         2.337913868548530E-010
   15.9243750000000         2.429452139294971E-010
   16.1381250000000         2.509224309288917E-010
   16.3518750000000         2.575859035352446E-010
   16.5656250000000         2.629416115235917E-010
   16.7793750000000         2.671251510070144E-010
   16.9931250000000         2.703754705468909E-010
   17.2068750000000         2.729882549899459E-010
   17.4206250000000         2.752625066918903E-010
   17.6343750000000         2.774633778690587E-010
   17.8481250000000         2.797817851567737E-010
   18.0618750000000         2.823173682291380E-010
   18.2756250000000         2.850818164029309E-010
   18.4893750000000         2.880224158156119E-010
   18.7031250000000         2.910528421483702E-010
   18.9168750000000         2.941004322032927E-010
   19.1306250000000         2.971427333152732E-010
   19.3443750000000         3.002357029533369E-010
   19.5581250000000         3.035288853585448E-010
   19.7718750000000         3.072499515469104E-010
   19.9856250000000         3.116801161183493E-010
   20.1993750000000         3.171079121715624E-010
   20.4131250000000         3.237750168234604E-010
   20.6268750000000         3.318312793016670E-010
   20.8406250000000         3.412964782265357E-010
   21.0543750000000         3.520439926330600E-010
   21.2681250000000         3.638072270849976E-010
   21.4818750000000         3.762125550059887E-010
   21.6956250000000         3.888269609260048E-010
   21.9093750000000         4.012191944606669E-010
   22.1231250000000         4.130202107444801E-010
   22.3368750000000         4.239774608370025E-010
   22.5506250000000         4.339855235181752E-010
   22.7643750000000         4.430992090084325E-010
   22.9781250000000         4.515216599917042E-010
   23.1918750000000         4.595734405547261E-010
   23.4056250000000         4.676448213600413E-010
   23.6193750000000         4.761490970228585E-010
   23.8331250000000         4.854713653460026E-010
   24.0468750000000         4.959297414004359E-010
   24.2606250000000         5.077503227671171E-010
   24.4743750000000         5.210501205800289E-010
   24.6881250000000         5.358365020463441E-010
   24.9018750000000         5.520071089435387E-010
   25.1156250000000         5.693550801889000E-010
   25.3293750000000         5.875791763413353E-010
   25.5431250000000         6.062883274362379E-010
   25.7568750000000         6.250158828991311E-010
   25.9706250000000         6.432452089634354E-010
   26.1843750000000         6.604511394198195E-010
   26.3981250000000         6.761516046970733E-010
   26.6118750000000         6.899932635195119E-010
   26.8256250000000         7.018336522299856E-010
   27.0393750000000         7.118146408378649E-010
   27.2531250000000         7.204239021285800E-010
   27.4668750000000         7.284942091682128E-010
   27.6806250000000         7.371424222311091E-010
   27.8943750000000         7.476325753679076E-010
   28.1081250000000         7.611605514031852E-010
   28.3218750000000         7.785919338621464E-010
   28.5356250000000         8.001807368728897E-010
   28.7493750000000         8.253337792855393E-010
   28.9631250000000         8.524713230580637E-010
   29.1768750000000         8.790445919634173E-010
   29.3906250000000         9.017533419429396E-010
   29.6043750000000         9.169715080752589E-010
   29.8181250000000         9.213658385665299E-010
   30.0318750000000         9.126195419197888E-010
   30.2456250000000         8.901808896619603E-010
   30.4593750000000         8.558722920743571E-010
   30.6731250000000         8.142391513590648E-010
   30.8868750000000         7.724774895813139E-010
   31.1006250000000         7.398738859054484E-010
   31.3143750000000         7.267257904130021E-010
   31.5281250000000         7.428003071443545E-010
   31.7418750000000         7.955059450928356E-010
   31.9556250000000         8.880109452510761E-010
   32.1693750000000         1.017632071770221E-009
   32.3831250000000         1.174819814890170E-009
   32.5968750000000         1.343052987331956E-009
   32.8106250000000         1.499864270466428E-009
   33.0243750000000         1.619069504601911E-009
   33.2381250000000         1.674109381626027E-009
   33.4518750000000         1.642195036706630E-009
   33.6656250000000         1.508763067587275E-009
   33.8793750000000         1.271600509400002E-009
   34.0931250000000         9.439124362892306E-010
   34.3068750000000         5.556568679340019E-010
   34.5206250000000         1.525765152321027E-010
   34.7343750000000        -2.073628667828546E-010
   34.9481250000000        -4.600972047334401E-010
   35.1618750000000        -5.437034431527581E-010
   35.3756250000000        -4.079357471180953E-010
   35.5893750000000        -2.386291020658784E-011
   35.8031250000000         6.077754852420539E-010
   36.0168750000000         1.450953527609604E-009
   36.2306250000000         2.432779877176022E-009
   36.4443750000000         3.446871776113327E-009
   36.6581250000000         4.362068724764811E-009
   36.8718750000000         5.036129918782303E-009
   37.0856250000000         5.333336488591993E-009
   37.2993750000000         5.144173950282384E-009
   37.5131250000000         4.404728846363764E-009
   37.7268750000000         3.113083735421395E-009
   37.9406250000000         1.340038374349266E-009
   38.1543750000000        -7.681670420775835E-010
   38.3681250000000        -2.996667345695333E-009
   38.5818750000000        -5.078843030850358E-009
   38.7956250000000        -6.722486757471709E-009
   39.0093750000000        -7.643170369094300E-009
   39.2231250000000        -7.601522806973704E-009
   39.4368750000000        -6.440193435084967E-009
   39.6506250000000        -4.115757398510336E-009
   39.8643750000000        -7.208949234965995E-010
   40.0781250000000         3.507205991855834E-009
   40.2918750000000         8.195016358308522E-009
   40.5056250000000         1.285850920393593E-008
   40.7193750000000         1.694575126665720E-008
   40.9331250000000         1.989316435868428E-008
   41.1468750000000         2.119042257537419E-008
   41.3606250000000         2.044733367813244E-008
   41.5743750000000         1.745513005291474E-008
   41.7881250000000         1.223436648027589E-008
   42.0018750000000         5.062394495126845E-009
   42.2156250000000        -3.525106802386761E-009
   42.4293750000000        -1.276164673655372E-008
   42.6431250000000        -2.170672428823677E-008
   42.8568750000000        -2.932888305642900E-008
   43.0706250000000        -3.460879502955632E-008
   43.2843750000000        -3.665330839344798E-008
   43.4981250000000        -3.480921809246033E-008
   43.7118750000000        -2.876435530086294E-008
   43.9256250000000        -1.862358254474249E-008
   44.1393750000000        -4.948606791175585E-009
   44.3531250000000         1.124690382200248E-008
   44.5668750000000         2.855162364533094E-008
   44.7806250000000         4.526033767583146E-008
   44.9943750000000         5.952199996951165E-008
   45.2081250000000         6.952155087897120E-008
   45.4218750000000         7.368010077357981E-008
   45.6356250000000         7.085415640533163E-008
   45.8493750000000         6.051223862163728E-008
   46.0631250000000         4.286679460280721E-008
   46.2768750000000         1.894130961348957E-008
   46.4906250000000        -9.443122987700059E-009
   46.7043750000000        -3.977074527468579E-008
   46.9181250000000        -6.902382144695402E-008
   47.1318750000000        -9.395525463740056E-008
   47.3456250000000        -1.114209005856730E-007
   47.5593750000000        -1.187416727416784E-007
   47.7731250000000        -1.140579294977919E-007
   47.9868750000000        -9.663425154313370E-008
   48.2006250000000        -6.707268043828371E-008
   48.4143750000000        -2.739748999397738E-008
   48.6281250000000         1.901526604172561E-008
   48.8418750000000         6.767517420540583E-008
   49.0556250000000         1.133749820236626E-007
   49.2693750000000         1.507207996886978E-007
   49.4831250000000         1.747475490888741E-007
   49.6968750000000         1.815552036372237E-007
   49.9106250000000         1.688901902317737E-007
   50.1243750000000         1.365931372128633E-007
   50.3381250000000         8.684067725286339E-008
   50.5518750000000         2.412570406876020E-008
   50.7656250000000        -4.505333903744535E-008
   50.9793750000000        -1.127900555377912E-007
   51.1931250000000        -1.706130858510313E-007
   51.4068750000000        -2.104960914354283E-007
   51.6206250000000        -2.259249494548947E-007
   51.8343750000000        -2.128914020752964E-007
   52.0481250000000        -1.706760017491535E-007
   52.2618750000000        -1.022941084183967E-007
   52.4756250000000        -1.450763114685547E-008
   52.6893750000000         8.264947180579891E-008
   52.9031250000000         1.768262882903056E-007
   53.1168750000000         2.547212520500829E-007
   53.3306250000000         3.037283080050787E-007
   53.5443750000000         3.136798417203559E-007
   53.7581250000000         2.784698427835517E-007
   53.9718750000000         1.973322557966504E-007
   54.1856250000000         7.556956827860290E-008
   54.3993750000000        -7.542396801053912E-008
   54.6131250000000        -2.389251008063357E-007
   54.8268750000000        -3.944175578642228E-007
   55.0406250000000        -5.197871245533851E-007
   55.2543750000000        -5.939650681373510E-007
   55.4681250000000        -5.997302756664211E-007
   55.6818750000000        -5.263315394417401E-007
   55.8956250000000        -3.715814460812317E-007
   56.1093750000000        -1.431072587564523E-007
   56.3231250000000         1.414786800375809E-007
   56.5368750000000         4.556123237847145E-007
   56.7506250000000         7.659990253536903E-007
   56.9643750000000         1.035857537078402E-006
   57.1781250000000         1.228882366036504E-006
   57.3918750000000         1.313507720632831E-006
   57.6056250000000         1.266987876718466E-006
   57.8193750000000         1.078795814005511E-006
   58.0331250000000         7.528897589658043E-007
   58.2468750000000         3.085035128455724E-007
   58.4606250000000        -2.207286806682164E-007
   58.6743750000000        -7.893152391114959E-007
   58.8881250000000        -1.343923854526371E-006
   59.1018750000000        -1.828494069735052E-006
   59.3156250000000        -2.189922510994845E-006
   59.5293750000000        -2.383708801048650E-006
   59.7431250000000        -2.378931853851922E-006
   59.9568750000000        -2.161983096806955E-006
   60.1706250000000        -1.738610581111284E-006
   60.3843750000000        -1.134012101832600E-006
   60.5981250000000        -3.909348768389478E-007
   60.8118750000000         4.340325050778864E-007
   61.0256250000000         1.275581788237315E-006
   61.2393750000000         2.065664023182519E-006
   61.4531250000000         2.739674449154546E-006
   61.6668750000000         3.242176631006376E-006
   61.8806250000000         3.531566197549664E-006
   62.0943750000000         3.583215104372803E-006
   62.3081250000000         3.390833339635008E-006
   62.5218750000000         2.966010155327542E-006
   62.7356250000000         2.336121124624456E-006
   62.9493750000000         1.540980044133019E-006
   63.1631250000000         6.287495851533631E-007
   63.3768750000000        -3.483169792042573E-007
   63.5906250000000        -1.337756555871911E-006
   63.8043750000000        -2.289959289335047E-006
   64.0181250000000        -3.160144088781553E-006
   64.2318750000000        -3.909185780514495E-006
   64.4456250000000        -4.503448140580237E-006
   64.6593750000000        -4.913964040608154E-006
   64.8731250000000        -5.115431506991638E-006
   65.0868750000000        -5.085539075851069E-006
   65.3006250000000        -4.805083570617851E-006
   65.5143750000000        -4.259200634478826E-006
   65.7281250000000        -3.439809951366453E-006
   65.9418750000000        -2.349113135639877E-006
   66.1556250000000        -1.003712382331160E-006
   66.3693750000000         5.613138516435167E-007
   66.5831250000000         2.289193544673979E-006
   66.7968750000000         4.099955210009874E-006
   67.0106250000000         5.891390045589395E-006
   67.2243750000000         7.543006619651840E-006
   67.4381250000000         8.923152874507008E-006
   67.6518750000000         9.899050408032831E-006
   67.8656250000000         1.034902925290204E-005
   68.0793750000000         1.017583032756812E-005
   68.2931250000000         9.319521657418185E-006
   68.5068750000000         7.768410117922362E-006
   68.7206250000000         5.566363745525512E-006
   68.9343750000000         2.815208031804551E-006
   69.1481250000000        -3.286871977189370E-007
   69.3618750000000        -3.663895002546097E-006
   69.5756250000000        -6.959038799148883E-006
   69.7893750000000        -9.972333104948903E-006
   70.0031250000000        -1.247371797781789E-005
   70.2168750000000        -1.426726855775042E-005
   70.4306250000000        -1.521133350662455E-005
   70.6443750000000        -1.523393135041894E-005
   70.8581250000000        -1.434132713979629E-005
   71.0718750000000        -1.261839808834723E-005
   71.2856250000000        -1.022030996035176E-005
   71.4993750000000        -7.356064879879691E-006
   71.7131250000000        -4.265520761600415E-006
   71.9268750000000        -1.192388121582099E-006
   72.1406250000000         1.643644898566296E-006
   72.3543750000000         4.072225244681154E-006
   72.5681250000000         5.991790605664057E-006
   72.7818750000000         7.380444225428849E-006
   72.9956250000000         8.296481094069831E-006
   73.2093750000000         8.868038206306158E-006
   73.4231250000000         9.272722554613881E-006
   73.6368750000000         9.709420544020043E-006
   73.8506250000000         1.036563385494986E-005
   74.0643750000000         1.138445863062881E-005
   74.2781250000000         1.283560551540730E-005
   74.4918750000000         1.469458317992946E-005
   74.7056250000000         1.683334248285302E-005
   74.9193750000000         1.902437940923088E-005
   75.1331250000000         2.095866545477964E-005
   75.3468750000000         2.227600777104929E-005
   75.5606250000000         2.260475924641958E-005
   75.7743750000000         2.160642201830818E-005
   75.9881250000000         1.901980859609969E-005
   76.2018750000000         1.469917979688969E-005
   76.4156250000000         8.641228837950746E-006
   76.6293750000000         9.969006815184782E-007
   76.8431250000000        -7.934287686698705E-006
   77.0568750000000        -1.772771524733184E-005
   77.2706250000000        -2.787303114711254E-005
   77.4843750000000        -3.782552294581925E-005
   77.6981250000000        -4.706393607242570E-005
   77.9118750000000        -5.514818668861810E-005
   78.1256250000000        -6.177015617298009E-005
   78.3393750000000        -6.679131611856364E-005
   78.5531250000000        -7.026226176964494E-005
   78.7668750000000        -7.242118602776218E-005
   78.9806250000000        -7.367068220305692E-005
   79.1943750000000        -7.453474493040422E-005
   79.4081250000000        -7.560014918384463E-005
   79.6218750000000        -7.744824884450154E-005
   79.8356250000000        -8.058442355918772E-005
   80.0493750000000        -8.537277116161142E-005
   80.2631250000000        -9.198314797962068E-005
   80.4768750000000        -1.003563608005795E-004
   80.6906250000000        -1.101913684761456E-004
   80.9043750000000        -1.209559918900039E-004
   81.1181250000000        -1.319201377133524E-004
   81.3318750000000        -1.422082056638125E-004
   81.5456250000000        -1.508654366906217E-004
   81.7593750000000        -1.569316791657456E-004
   81.9731250000000        -1.595155280888977E-004
   82.1868750000000        -1.578620593725423E-004
   82.4006250000000        -1.514083721885180E-004
   82.6143750000000        -1.398227173189710E-004
   82.8281250000000        -1.230249161903740E-004
   83.0418750000000        -1.011878186706676E-004
   83.2556250000000        -7.472146164183579E-005
   83.4693750000000        -4.424315957436925E-005
   83.6831250000000        -1.053782310705487E-005
   83.8968750000000         2.548672470626290E-005
   84.1106250000000         6.284478987363042E-005
   84.3243750000000         1.005142187552591E-004
   84.5381250000000         1.374712519482599E-004
   84.7518750000000         1.727171913245664E-004
   84.9656250000000         2.052966041665468E-004
   85.1793750000000         2.343080261079003E-004
   85.3931250000000         2.589091071396382E-004
   85.6068750000000         2.783187785987548E-004
   85.8206250000000         2.918192634219265E-004
   86.0343750000000         2.987606178400840E-004
   86.2481250000000         2.985700336852341E-004
   86.4618750000000         2.907674287935263E-004
   86.6756250000000         2.749880033280030E-004
   86.8893750000000         2.510115337610564E-004
   87.1031250000000         2.187972903164501E-004
   87.3168750000000         1.785226523259801E-004
   87.5306250000000         1.306227913945421E-004
   87.7443750000000         7.582820926353251E-005
   87.9581250000000         1.519646256727754E-005
   88.1718750000000        -4.986590972606668E-005
   88.3856250000000        -1.175953957926153E-004
   88.5993750000000        -1.858815493702291E-004
   88.8131250000000        -2.522988379713870E-004
   89.0268750000000        -3.141634339253229E-004
   89.2406250000000        -3.686170260698732E-004
   89.4543750000000        -4.127382166317312E-004
   89.6681250000000        -4.436800874209494E-004
   89.8818750000000        -4.588301232007059E-004
   90.0956250000000        -4.559859931785062E-004
   90.3093750000000        -4.335379172060567E-004
   90.5231250000000        -3.906457550774451E-004
   90.7368750000000        -3.273968785718422E-004
   90.9506250000000        -2.449296577265429E-004
   91.1643750000000        -1.455073321862941E-004
   91.3781250000000        -3.252839289005229E-005
   91.5918750000000         8.953749732887816E-005
   91.8056250000000         2.152945803758916E-004
   92.0193750000000         3.386478356916796E-004
   92.2331250000000         4.531055766202561E-004
   92.4468750000000         5.521446206065723E-004
   92.6606250000000         6.296178516676035E-004
   92.8743750000000         6.801779227592170E-004
   93.0881250000000         6.996864048328425E-004
   93.3018750000000         6.855755019211824E-004
   93.5156250000000         6.371299789886186E-004
   93.7293750000000         5.556604248507812E-004
   93.9431250000000         4.445453554471263E-004
   94.1568750000000         3.091286175604925E-004
   94.3706250000000         1.564694599109942E-004
   94.5843750000000        -5.045365542614803E-006
   94.7981250000000        -1.662060595394908E-004
   95.0118750000000        -3.175683874578316E-004
   95.2256250000000        -4.500852045775100E-004
   95.4393750000000        -5.557339047917856E-004
   95.6531250000000        -6.280908546676793E-004
   95.8668750000000        -6.628061043109828E-004
   96.0806250000000        -6.579380727119156E-004
   96.2943750000000        -6.141180883808680E-004
   96.5081250000000        -5.345278496971759E-004
   96.7218750000000        -4.246879598701770E-004
   96.9356250000000        -2.920713735820775E-004
   97.1493750000000        -1.455704491463679E-004
   97.3631250000000         5.141051973317533E-006
   97.5768750000000         1.503004505610365E-004
   97.7906250000000         2.807476684690195E-004
   98.0043750000000         3.885603154682713E-004
   98.2181250000000         4.675818089920825E-004
   98.4318750000000         5.138014681407942E-004
   98.6456250000000         5.255587045664187E-004
   98.8593750000000         5.035591078834772E-004
   99.0731250000000         4.507069234243318E-004
   99.2868750000000         3.717745612187107E-004
   99.5006250000000         2.729438119478924E-004
   99.7143750000000         1.612640284410223E-004
   99.9281250000000         4.407864263844237E-005
   100.141875000000        -7.152754923111745E-005
   100.355625000000        -1.792119600677103E-004
   100.569375000000        -2.737490092977409E-004
   100.783125000000        -3.512690072790813E-004
   100.996875000000        -4.093489394588279E-004
   101.210625000000        -4.469588022260685E-004
   101.424375000000        -4.642822133675772E-004
   101.638125000000        -4.624427414472889E-004
   101.851875000000        -4.431764325590645E-004
   102.065625000000        -4.084954078857881E-004
   102.279375000000        -3.603866997633678E-004
   102.493125000000        -3.005847690106537E-004
   102.706875000000        -2.304460233913799E-004
   102.920625000000        -1.509402358153198E-004
   103.134375000000        -6.275850677844776E-005
   103.348125000000         3.347799235322386E-005
   103.561875000000         1.369381044641336E-004
   103.775625000000         2.462699223925479E-004
   103.989375000000         3.593058197452006E-004
   104.203125000000         4.728310446770941E-004
   104.416875000000         5.824592997704149E-004
   104.630625000000         6.826492223563738E-004
   104.844375000000         7.668818587389719E-004
   105.058125000000         8.280024102986350E-004
   105.271875000000         8.587113723193516E-004
   105.485625000000         8.521725122042625E-004
   105.699375000000         8.026897565358788E-004
   105.913125000000         7.063936006462113E-004
   106.126875000000         5.618713935994737E-004
   106.340625000000         3.706755840309864E-004
   106.554375000000         1.376499819573202E-004
   106.768125000000        -1.289740363216144E-004
   106.981875000000        -4.177425631617185E-004
   107.195625000000        -7.144160627049429E-004
   107.409375000000        -1.002666252425236E-003
   107.623125000000        -1.264998489430805E-003
   107.836875000000        -1.483844467635148E-003
   108.050625000000        -1.642752971440005E-003
   108.264375000000        -1.727594542957685E-003
   108.478125000000        -1.727690308234875E-003
   108.691875000000        -1.636776482521763E-003
   108.905625000000        -1.453724302886805E-003
   109.119375000000        -1.182949839559683E-003
   109.333125000000        -8.344683293002020E-004
   109.546875000000        -4.235719364938206E-004
   109.760625000000         2.986356329248816E-005
   109.974375000000         5.024107077983798E-004
   110.188125000000         9.684030469070757E-004
   110.401875000000         1.401448934665949E-003
   110.615625000000         1.776050079860793E-003
   110.829375000000         2.069218385658439E-003
   111.043125000000         2.261981863681600E-003
   111.256875000000         2.340675400185530E-003
   111.470625000000         2.297924670929841E-003
   111.684375000000         2.133250782062165E-003
   111.898125000000         1.853247981577948E-003
   112.111875000000         1.471315336966498E-003
   112.325625000000         1.006953595695060E-003
   112.539375000000         4.846683553616019E-004
   112.753125000000        -6.745201713010828E-005
   112.966875000000        -6.193925889258788E-004
   113.180625000000        -1.140994697914566E-003
   113.394375000000        -1.603749146835581E-003
   113.608125000000        -1.982482946273152E-003
   113.821875000000        -2.256830572053985E-003
   114.035625000000        -2.412396196349081E-003
   114.249375000000        -2.441535379490782E-003
   114.463125000000        -2.343711579384844E-003
   114.676875000000        -2.125412485246342E-003
   114.890625000000        -1.799641349267174E-003
   115.104375000000        -1.385026897085030E-003
   115.318125000000        -9.046199436594628E-004
   115.531875000000        -3.844637714359358E-004
   115.745625000000         1.479626236632328E-004
   115.959375000000         6.653248263368265E-004
   116.173125000000         1.141936373567016E-003
   116.386875000000         1.555094925808061E-003
   116.600625000000         1.886177092532618E-003
   116.814375000000         2.121438309647204E-003
   117.028125000000         2.252487298125451E-003
   117.241875000000         2.276428420239879E-003
   117.455625000000         2.195687816732914E-003
   117.669375000000         2.017558897073685E-003
   117.883125000000         1.753518255553611E-003
   118.096875000000         1.418373528444512E-003
   118.310625000000         1.029309708294078E-003
   118.524375000000         6.049000930181585E-004
   118.738125000000         1.641429124128171E-004
   118.951875000000        -2.744243563341121E-004
   119.165625000000        -6.934927508622857E-004
   119.379375000000        -1.077604683125489E-003
   119.593125000000        -1.413618372354138E-003
   119.806875000000        -1.691012835268136E-003
   120.020625000000        -1.902043035783527E-003
   120.234375000000        -2.041762865460790E-003
   120.448125000000        -2.107938799799621E-003
   120.661875000000        -2.100879324685493E-003
   120.875625000000        -2.023204809718899E-003
   121.089375000000        -1.879579912027948E-003
   121.303125000000        -1.676426477328819E-003
   121.516875000000        -1.421629995104741E-003
   121.730625000000        -1.124247687333720E-003
   121.944375000000        -7.942219093671709E-004
   122.158125000000        -4.420992174077659E-004
   122.371875000000        -7.875352176936023E-005
   122.585625000000         2.848886977135634E-004
   122.799375000000         6.381221913556983E-004
   123.013125000000         9.707347818480378E-004
   123.226875000000         1.273273548371402E-003
   123.440625000000         1.537298753118188E-003
   123.654375000000         1.755616366272165E-003
   123.868125000000         1.922478332463014E-003