  -1.60312500000000        -1.105496635851042E-024
  -1.38937500000000        -1.081252601785231E-021
  -1.17562500000000        -1.030301577149042E-020
 -0.961875000000000        -5.988722920407548E-020
 -0.748125000000000        -2.702890272407236E-019
 -0.534375000000000        -1.019276778503479E-018
 -0.320625000000000        -3.316560444235190E-018
 -0.106875000000000        -9.494857884027647E-018
  0.106875000000000        -2.428611882065172E-017
  0.320625000000000        -5.626233978004788E-017
  0.534375000000000        -1.195214705920728E-016
  0.748125000000000        -2.354076346106208E-016
  0.961875000000000        -4.340110893528080E-016
   1.17562500000000        -7.550992182775105E-016
   1.38937500000000        -1.248108479642388E-015
   1.60312500000000        -1.970856025698380E-015
   1.81687500000000        -2.986827159622770E-015
   2.03062500000000        -4.361062619275327E-015
   2.24437500000000        -6.154837616996625E-015
   2.45812500000000        -8.419675277261516E-015
   2.67187500000000        -1.119130687032272E-014
   2.88562500000000        -1.448435188433789E-014
   3.09937500000000        -1.828834616823466E-014
   3.31312500000000        -2.256581253489243E-014
   3.52687500000000        -2.725312722399685E-014
   3.74062500000000        -3.226392138255310E-014
   3.95437500000000        -3.749451607917752E-014
   4.16812500000000        -4.283168404124690E-014
   4.38187500000000        -4.816100450435930E-014
   4.59562500000000        -5.337471485183500E-014
   4.80937500000000        -5.837895801651264E-014
   5.02312500000000        -6.309843481902886E-014
   5.23687500000000        -6.747840598434635E-014
   5.45062500000000        -7.148460532263959E-014
   5.66437500000000        -7.510059164981824E-014
   5.87812500000000        -7.832382336620468E-014
   6.09187500000000        -8.116208726678549E-014
   6.30562500000000        -8.363088890732497E-014
   6.51937500000000        -8.575291377918200E-014
   6.73312500000000        -8.756013774177066E-014
   6.94687500000000        -8.909837195313653E-014
   7.16062500000000        -9.043321053890252E-014
   7.37437500000000        -9.165607117469761E-014
   7.58812500000000        -9.288882666311595E-014
   7.80187500000000        -9.428472614092023E-014
   8.01562500000000        -9.602496463438943E-014
   8.22937500000000        -9.831003577471798E-014
   8.44312500000000        -1.013462026491504E-013
   8.65687500000000        -1.053284011855127E-013
   8.87062500000000        -1.104217537036759E-013
   9.08437500000000        -1.167447985200239E-013
   9.29812500000000        -1.243565943445416E-013
   9.51187500000000        -1.332504662768960E-013
   9.72562500000000        -1.433551768276901E-013
   9.93937500000000        -1.545440186993851E-013
   10.1531250000000        -1.666507358237732E-013
   10.3668750000000        -1.794893522344762E-013
   10.5806250000000        -1.928753207588090E-013
   10.7943750000000        -2.066442956316119E-013
   11.0081250000000        -2.206657516975360E-013
   11.2218750000000        -2.348496564288534E-013
   11.4356250000000        -2.491454241365970E-013
   11.6493750000000        -2.635344809099464E-013
   11.8631250000000        -2.780183029663725E-013
   12.0768750000000        -2.926051632999675E-013
   12.2906250000000        -3.072990453377370E-013
   12.5043750000000        -3.220934264116746E-013
   12.7181250000000        -3.369720677148978E-013
   12.9318750000000        -3.519166749537839E-013
   13.1456250000000        -3.669203686398134E-013
   13.3593750000000        -3.820038771052234E-013
   13.5731250000000        -3.972309910099657E-013
   13.7868750000000        -4.127196075391206E-013
   14.0006250000000        -4.286448748360148E-013
   14.2143750000000        -4.452326554191796E-013
   14.4281250000000        -4.627432167187219E-013
   14.6418750000000        -4.814471315971910E-013
   14.8556250000000        -5.015964995545290E-013
   15.0693750000000        -5.233959417216199E-013
   15.2831250000000        -5.469782451659441E-013
   15.4968750000000        -5.723888266611265E-013
   15.7106250000000        -5.995814219644733E-013
   15.9243750000000        -6.284259817960834E-013
   16.1381250000000        -6.587273257974903E-013
   16.3518750000000        -6.902516061098959E-013
   16.5656250000000        -7.227561519954098E-013
   16.7793750000000        -7.560174417738211E-013
   16.9931250000000        -7.898532690311424E-013
   17.2068750000000        -8.241357178569679E-013
   17.4206250000000        -8.587933274533834E-013
   17.6343750000000        -8.938029266059621E-013
   17.8481250000000        -9.291737249037755E-013
   18.0618750000000        -9.649269216332156E-013
   18.2756250000000        -1.001075067292530E-012
   18.4893750000000        -1.037605918482037E-012
   18.7031250000000        -1.074472991538992E-012
   18.9168750000000        -1.111595018893881E-012
   19.1306250000000        -1.148864458138161E-012
   19.3443750000000        -1.186163027143992E-012
   19.5581250000000        -1.223381642149410E-012
   19.7718750000000        -1.260441095125754E-012
   19.9856250000000        -1.297310175012046E-012
   20.1993750000000        -1.334018045153129E-012
   20.4131250000000        -1.370659210986511E-012
   20.6268750000000        -1.407390462811260E-012
   20.8406250000000        -1.444420301142671E-012
   21.0543750000000        -1.481992824258590E-012
   21.2681250000000        -1.520368567474647E-012
   21.4818750000000        -1.559804663563183E-012
   21.6956250000000        -1.600536706816967E-012
   21.9093750000000        -1.642764246606412E-012
   22.1231250000000        -1.686641083183443E-012
   22.3368750000000        -1.732270630337913E-012
   22.5506250000000        -1.779705840391933E-012
   22.7643750000000        -1.828953109940899E-012
   22.9781250000000        -1.879978904486428E-012
   23.1918750000000        -1.932717803342835E-012
   23.4056250000000        -1.987081058875248E-012
   23.6193750000000        -2.042964451391311E-012
   23.8331250000000        -2.100255058350138E-012
   24.0468750000000        -2.158836275284036E-012
   24.2606250000000        -2.218591325097492E-012
   24.4743750000000        -2.279405380651282E-012
   24.6881250000000        -2.341166226585301E-012
   24.9018750000000        -2.403764980003661E-012
   25.1156250000000        -2.467096827799703E-012
   25.3293750000000        -2.531063245362424E-012
   25.5431250000000        -2.595576348502209E-012
   25.7568750000000        -2.660565404096057E-012
   25.9706250000000        -2.725986131951038E-012
   26.1843750000000        -2.791831782055388E-012
   26.3981250000000        -2.858144948201013E-012
   26.6118750000000        -2.925028231821048E-012
   26.8256250000000        -2.992651130296655E-012
   27.0393750000000        -3.061250979588774E-012
   27.2531250000000        -3.131126090149302E-012
   27.4668750000000        -3.202619217622029E-012
   27.6806250000000        -3.276092020164329E-012
   27.8943750000000        -3.351892042641810E-012
   28.1081250000000        -3.430315057279638E-012
   28.3218750000000        -3.511568405769599E-012
   28.5356250000000        -3.595739833448898E-012
   28.7493750000000        -3.682778223684024E-012
   28.9631250000000        -3.772490865209214E-012
   29.1768750000000        -3.864560128604667E-012
   29.3906250000000        -3.958580660610263E-012
   29.6043750000000        -4.054113617627177E-012
   29.8181250000000        -4.150753123525269E-012
   30.0318750000000        -4.248196324207882E-012
   30.2456250000000        -4.346305835337568E-012
   30.4593750000000        -4.445154117937252E-012
   30.6731250000000        -4.545039073369530E-012
   30.8868750000000        -4.646462953000309E-012
   31.1006250000000        -4.750070896627639E-012
   31.3143750000000        -4.856550765437684E-012
   31.5281250000000        -4.966502582447696E-012
   31.7418750000000        -5.080291696957146E-012
   31.9556250000000        -5.197905752068812E-012
   32.1693750000000        -5.318838696257139E-012
   32.3831250000000        -5.442026714286039E-012
   32.5968750000000        -5.565858423424621E-012
   32.8106250000000        -5.688275472238416E-012
   33.0243750000000        -5.806970170016252E-012
   33.2381250000000        -5.919673746320390E-012
   33.4518750000000        -6.024513704769880E-012
   33.6656250000000        -6.120403541046295E-012
   33.8793750000000        -6.207414566088659E-012
   34.0931250000000        -6.287070927905675E-012
   34.3068750000000        -6.362506146565703E-012
   34.5206250000000        -6.438424495680738E-012
   34.7343750000000        -6.520827150493968E-012
   34.9481250000000        -6.616487316027000E-012
   35.1618750000000        -6.732190853096190E-012
   35.3756250000000        -6.873796859630953E-012
   35.5893750000000        -7.045210265189041E-012
   35.8031250000000        -7.247391208065303E-012
   36.0168750000000        -7.477547911105093E-012
   36.2306250000000        -7.728665545903098E-012
   36.4443750000000        -7.989508471202177E-012
   36.6581250000000        -8.245196647517135E-012
   36.8718750000000        -8.478397526877024E-012
   37.0856250000000        -8.671099439003625E-012
   37.2993750000000        -8.806846065816128E-012
   37.5131250000000        -8.873225205574241E-012
   37.7268750000000        -8.864331770124729E-012
   37.9406250000000        -8.782874190444336E-012
   38.1543750000000        -8.641579907174478E-012
   38.3681250000000        -8.463583875291716E-012
   38.5818750000000        -8.281560154766748E-012
   38.7956250000000        -8.135477814727016E-012
   39.0093750000000        -8.069018194787723E-012
   39.2231250000000        -8.124869455322015E-012
   39.4368750000000        -8.339293943741322E-012
   39.6506250000000        -8.736522147405033E-012
   39.8643750000000        -9.323640350948485E-012
   40.0781250000000        -1.008668588040182E-011
   40.2918750000000        -1.098862874013254E-011
   40.5056250000000        -1.196979268926005E-011
   40.7193750000000        -1.295105610911771E-011
   40.9331250000000        -1.383988691370837E-011
   41.1468750000000        -1.453892987510937E-011
   41.3606250000000        -1.495651620255995E-011
   41.5743750000000        -1.501814167601876E-011
   41.7881250000000        -1.467770588773359E-011
   42.0018750000000        -1.392716078924138E-011
   42.2156250000000        -1.280321353027877E-011
   42.4293750000000        -1.138988635640325E-011
   42.6431250000000        -9.816055746577816E-012
   42.8568750000000        -8.247561204321484E-012
   43.0706250000000        -6.874048872661639E-012
   43.2843750000000        -5.891346964628331E-012
   43.4981250000000        -5.480790841604148E-012
   43.7118750000000        -5.787447806419921E-012
   43.9256250000000        -6.899566099194150E-012
   44.1393750000000        -8.831722110587657E-012
   44.3531250000000        -1.151402082665507E-011
   44.5668750000000        -1.478929827722141E-011
   44.7806250000000        -1.841959167606252E-011
   44.9943750000000        -2.210223227515300E-011
   45.2081250000000        -2.549485643351378E-011
   45.4218750000000        -2.824752675366634E-011
   45.6356250000000        -3.003913527281648E-011
   45.8493750000000        -3.061445229201154E-011
   46.0631250000000        -2.981770993833939E-011
   46.2768750000000        -2.761856249807166E-011
   46.4906250000000        -2.412670452982331E-011
   46.7043750000000        -1.959235604576532E-011
   46.9181250000000        -1.439118641404362E-011
   47.1318750000000        -8.993934990378674E-012
   47.3456250000000        -3.922828178511261E-012
   47.5593750000000         3.013142701447136E-013
   47.7731250000000         3.215872732153603E-012
   47.9868750000000         4.470684974992171E-012
   48.2006250000000         3.872986233840743E-012
   48.4143750000000         1.416711119928689E-012
   48.6281250000000        -2.708859031971746E-012
   48.8418750000000        -8.134028298492078E-012
   49.0556250000000        -1.434741114104990E-011
   49.2693750000000        -2.075559935867010E-011
   49.4831250000000        -2.675784839992759E-011
   49.6968750000000        -3.182717491767064E-011
   49.9106250000000        -3.558735787317738E-011
   50.1243750000000        -3.787457473191623E-011
   50.3381250000000        -3.877303993024403E-011
   50.5518750000000        -3.861615877623748E-011
   50.7656250000000        -3.794830378417668E-011
   50.9793750000000        -3.744710602947262E-011
   51.1931250000000        -3.781168083435093E-011
   51.4068750000000        -3.962786476031183E-011
   51.6206250000000        -4.322661073827167E-011
   51.8343750000000        -4.855541526037313E-011
   52.0481250000000        -5.508433885306631E-011
   52.2618750000000        -6.176728201843230E-011
   52.4756250000000        -6.707538899424369E-011
   52.6893750000000        -6.911278808398097E-011
   52.9031250000000        -6.581571555184795E-011
   53.1168750000000        -5.522516108666645E-011
   53.3306250000000        -3.581160109784882E-011
   53.5443750000000        -6.819488397487381E-012
   53.7581250000000         3.140959214955769E-011
   53.9718750000000         7.718138443395253E-011
   54.1856250000000         1.273077250924321E-010
   54.3993750000000         1.771210819546391E-010
   54.6131250000000         2.206752196028923E-010
   54.8268750000000         2.511456938681371E-010
   55.0406250000000         2.614227732104031E-010
   55.2543750000000         2.448655925974425E-010
   55.4681250000000         1.961621953078817E-010
   55.6818750000000         1.122183224695973E-010
   55.8956250000000        -7.018800449676028E-012
   56.1093750000000        -1.579042180134558E-010
   56.3231250000000        -3.327079191622783E-010
   56.5368750000000        -5.195854054682315E-010
   56.7506250000000        -7.029712486586902E-010
   56.9643750000000        -8.644263863565512E-010
   57.1781250000000        -9.839273614069275E-010
   57.3918750000000        -1.041538413896360E-009
   57.6056250000000        -1.019359652834832E-009
   57.8193750000000        -9.036013930022955E-010
   58.0331250000000        -6.866011533310093E-010
   58.2468750000000        -3.685803447187835E-010
   58.4606250000000         4.106407341571698E-011
   58.6743750000000         5.231195747255182E-010
   58.8881250000000         1.048717979815231E-009
   59.1018750000000         1.580386766848131E-009
   59.3156250000000         2.074011595810126E-009
   59.5293750000000         2.481648901571749E-009
   59.7431250000000         2.755044026892059E-009
   59.9568750000000         2.849632242125443E-009
   60.1706250000000         2.728734893083614E-009
   60.3843750000000         2.367617884163422E-009
   60.5981250000000         1.757060345660103E-009
   60.8118750000000         9.060911676731541E-010
   61.0256250000000        -1.564089310076901E-010
   61.2393750000000        -1.381473793729931E-009
   61.4531250000000        -2.701328500137445E-009
   61.6668750000000        -4.032209031730504E-009
   61.8806250000000        -5.278640249820823E-009
   62.0943750000000        -6.338971509821594E-009
   62.3081250000000        -7.111864365053272E-009
   62.5218750000000        -7.503341948143011E-009
   62.7356250000000        -7.433951905105503E-009
   62.9493750000000        -6.845568926416577E-009
   63.1631250000000        -5.707370842195942E-009
   63.3768750000000        -4.020562793270390E-009
   63.5906250000000        -1.821493205014955E-009
   63.8043750000000         8.171031091797915E-010
   64.0181250000000         3.786893295267756E-009
   64.2318750000000         6.946812845066335E-009
   64.4456250000000         1.012794706575912E-008
   64.6593750000000         1.314026477738419E-008
   64.8731250000000         1.578095644201988E-008
   65.0868750000000         1.784406190434691E-008
   65.3006250000000         1.913102426984901E-008
   65.5143750000000         1.946177431897904E-008
   65.7281250000000         1.868593062234131E-008
   65.9418750000000         1.669368957810644E-008
   66.1556250000000         1.342597232005643E-008
   66.3693750000000         8.883388209732791E-009
   66.5831250000000         3.133565702368729E-009
   66.7968750000000        -3.683608379227434E-009
   67.0106250000000        -1.135330694936634E-008
   67.2243750000000        -1.958610123319833E-008
   67.4381250000000        -2.802176183563526E-008
   67.6518750000000        -3.623691478704104E-008
   67.8656250000000        -4.375685697994889E-008
   68.0793750000000        -5.007170042955231E-008
   68.2931250000000        -5.465682779024909E-008
   68.5068750000000        -5.699740220028394E-008
   68.7206250000000        -5.661638840212454E-008
   68.9343750000000        -5.310522137047843E-008
   69.1481250000000        -4.615592213083489E-008
   69.3618750000000        -3.559313267061000E-008
   69.5756250000000        -2.140425183762132E-008
   69.7893750000000        -3.765633165401114E-009
   70.0031250000000         1.693731543466254E-008
   70.2168750000000         4.009828362034903E-008
   70.4306250000000         6.488846031682488E-008
   70.6443750000000         9.026686681630921E-008
   70.8581250000000         1.150038244637476E-007
   71.0718750000000         1.377181314441241E-007
   71.2856250000000         1.569277693371692E-007
   71.4993750000000         1.711131186770772E-007
   71.7131250000000         1.787907821869168E-007
   71.9268750000000         1.785952511173726E-007
   72.1406250000000         1.693648649931931E-007
   72.3543750000000         1.502278688627652E-007
   72.5681250000000         1.206839210451261E-007
   72.7818750000000         8.067619538930769E-008
   72.9956250000000         3.064928893583982E-008
   73.2093750000000        -2.841149428172813E-008
   73.4231250000000        -9.496326145149644E-008
   73.6368750000000        -1.669139084665287E-007
   73.8506250000000        -2.416574639072045E-007
   74.0643750000000        -3.161367855378623E-007
   74.2781250000000        -3.869325747773476E-007
   74.4918750000000        -4.503762360578829E-007
   74.7056250000000        -5.026827370313927E-007
   74.9193750000000        -5.400984063244809E-007
   75.1331250000000        -5.590576148933818E-007
   75.3468750000000        -5.563415893625814E-007
   75.5606250000000        -5.292322483348508E-007
   75.7743750000000        -4.756539623612078E-007
   75.9881250000000        -3.942965194039438E-007
   76.2018750000000        -2.847133116514622E-007
   76.4156250000000        -1.473898061672786E-007
   76.6293750000000         1.622133825597747E-008
   76.8431250000000         2.037006668231431E-007
   77.0568750000000         4.116984222501332E-007
   77.2706250000000         6.360061413338762E-007
   77.4843750000000         8.716608600740540E-007
   77.6981250000000         1.113078092117479E-006
   77.9118750000000         1.354208629734049E-006
   78.1256250000000         1.588713375331738E-006
   78.3393750000000         1.810149874205843E-006
   78.5531250000000         2.012163994427803E-006
   78.7668750000000         2.188680275626664E-006
   78.9806250000000         2.334084814506335E-006
   79.1943750000000         2.443395125733911E-006
   79.4081250000000         2.512412156140242E-006
   79.6218750000000         2.537850476360816E-006
   79.8356250000000         2.517443565499387E-006
   80.0493750000000         2.450021984785726E-006
   80.2631250000000         2.335563059031987E-006
   80.4768750000000         2.175211416819106E-006
   80.6906250000000         1.971270364048804E-006
   80.9043750000000         1.727164579001022E-006
   81.1181250000000         1.447375033403154E-006
   81.3318750000000         1.137347388501704E-006
   81.5456250000000         8.033754212865824E-007
   81.7593750000000         4.524613409164168E-007
   81.9731250000000         9.215519437721891E-008
   82.1868750000000        -2.696240380246346E-007
   82.4006250000000        -6.247825754684045E-007
   82.6143750000000        -9.652575526049891E-007
   82.8281250000000        -1.283230042902107E-006
   83.0418750000000        -1.571340447014973E-006
   83.2556250000000        -1.822900648736021E-006
   83.4693750000000        -2.032096756883898E-006
   83.6831250000000        -2.194175805279929E-006
   83.8968750000000        -2.305609543446225E-006
   84.1106250000000        -2.364228481719612E-006
   84.3243750000000        -2.369319708591655E-006
   84.5381250000000        -2.321682710331171E-006
   84.7518750000000        -2.223638506087002E-006
   84.9656250000000        -2.078988852828625E-006
   85.1793750000000        -1.892924033739887E-006
   85.3931250000000        -1.671879754792662E-006
   85.6068750000000        -1.423345847487198E-006
   85.8206250000000        -1.155631702814634E-006
   86.0343750000000        -8.775955218811974E-007
   86.2481250000000        -5.983464373346163E-007
   86.4618750000000        -3.269302155131186E-007
   86.6756250000000        -7.201048285285774E-008
   86.8893750000000         1.584418580763625E-007
   87.1031250000000         3.574382110643730E-007
   87.3168750000000         5.192285171225821E-007
   87.5306250000000         6.395128526382308E-007
   87.7443750000000         7.155987553809673E-007
   87.9581250000000         7.464967857724832E-007
   88.1718750000000         7.329493867535176E-007
   88.3856250000000         6.773909510452657E-007
   88.5993750000000         5.838400034375827E-007
   88.8131250000000         4.577274127531295E-007
   89.0268750000000         3.056674170808127E-007
   89.2406250000000         1.351808371992198E-007
   89.4543750000000        -4.561795885728645E-008
   89.6681250000000        -2.283570980739500E-007
   89.8818750000000        -4.047519202768035E-007
   90.0956250000000        -5.669435932710410E-007
   90.3093750000000        -7.078170649269314E-007
   90.5231250000000        -8.212846664144696E-007
   90.7368750000000        -9.025231744474890E-007
   90.9506250000000        -9.481541881282314E-007
   91.1643750000000        -9.563601885217455E-007
   91.3781250000000        -9.269315168733692E-007
   91.5918750000000        -8.612426050768545E-007
   91.8056250000000        -7.621589834783547E-007
   92.0193750000000        -6.338797347213273E-007
   92.2331250000000        -4.817230164263157E-007
   92.4468750000000        -3.118649039554376E-007
   92.6606250000000        -1.310439823767689E-007
   92.8743750000000         5.375426426507897E-008
   93.0881250000000         2.356182445388171E-007
   93.3018750000000         4.080209414969415E-007
   93.5156250000000         5.651056594411920E-007
   93.7293750000000         7.019332044676340E-007
   93.9431250000000         8.146787505439633E-007
   94.1568750000000         9.007691380519862E-007
   94.3706250000000         9.589543487906524E-007
   94.5843750000000         9.893102594477317E-007
   94.7981250000000         9.931733287787364E-007
   95.0118750000000         9.730114392888617E-007
   95.2256250000000         9.322385013316319E-007
   95.4393750000000         8.749834480889110E-007
   95.6531250000000         8.058267294979127E-007
   95.8668750000000         7.295192022240613E-007
   96.0806250000000         6.506992965015073E-007
   96.2943750000000         5.736244476620985E-007
   96.5081250000000         5.019319884164206E-007
   96.7218750000000         4.384430378703268E-007
   96.9356250000000         3.850204774948088E-007
   97.1493750000000         3.424890039055379E-007
   97.3631250000000         3.106216658150619E-007
   97.5768750000000         2.881934316853329E-007
   97.7906250000000         2.730984182711841E-007
   98.0043750000000         2.625236665483821E-007
   98.2181250000000         2.531689997143646E-007
   98.4318750000000         2.414997348064524E-007
   98.6456250000000         2.240170071782005E-007
   98.8593750000000         1.975293234999670E-007
   99.0731250000000         1.594087510077005E-007
   99.2868750000000         1.078158910157007E-007
   99.5006250000000         4.187943172986700E-008
   99.7143750000000        -3.818146295291318E-008
   99.9281250000000        -1.310005319710121E-007
   100.141875000000        -2.340785196278041E-007
   100.355625000000        -3.438690024079631E-007
   100.569375000000        -4.559328851311023E-007
   100.783125000000        -5.651545712357666E-007
   100.996875000000        -6.660091928300164E-007
   101.210625000000        -7.528671770328928E-007
   101.424375000000        -8.203199897330524E-007
   101.638125000000        -8.635092680736789E-007
   101.851875000000        -8.784408238442033E-007
   102.065625000000        -8.622652263862864E-007
   102.279375000000        -8.135078680645691E-007
   102.493125000000        -7.322335468918180E-007
   102.706875000000        -6.201335953310269E-007
   102.920625000000        -4.805273253303008E-007
   103.134375000000        -3.182738912691881E-007
   103.348125000000        -1.395954027243470E-007
   103.561875000000         4.818297476828848E-008
   103.775625000000         2.369653563625393E-007
   103.989375000000         4.182748307054976E-007
   104.203125000000         5.836815131828139E-007
   104.416875000000         7.252468933078486E-007
   104.630625000000         8.359604092407856E-007
   104.844375000000         9.101434362576546E-007
   105.058125000000         9.437965123070292E-007
   105.271875000000         9.348676997397198E-007
   105.485625000000         8.834234729770415E-007
   105.699375000000         7.917083131966472E-007
   105.913125000000         6.640850779356259E-007
   106.126875000000         5.068549041704993E-007
   106.340625000000         3.279625309998231E-007
   106.554375000000         1.366000684439559E-007
   106.768125000000        -5.727106481836091E-008
   106.981875000000        -2.434545201666814E-007
   107.195625000000        -4.120797438226464E-007
   107.409375000000        -5.541563267912295E-007
   107.623125000000        -6.620884892357776E-007
   107.836875000000        -7.301175741186680E-007
   108.050625000000        -7.546639398456827E-007
   108.264375000000        -7.345451687187489E-007
   108.478125000000        -6.710547593659371E-007
   108.691875000000        -5.678940207480509E-007
   108.905625000000        -4.309591921967547E-007
   109.119375000000        -2.679952576341226E-007
   109.333125000000        -8.813684492904324E-008
   109.546875000000         9.863564345590880E-008
   109.760625000000         2.820905206554643E-007
   109.974375000000         4.523520078497828E-007
   110.188125000000         6.004809987656873E-007
   110.401875000000         7.189917611181871E-007
   110.615625000000         8.022710910212340E-007
   110.829375000000         8.468729920152161E-007
   111.043125000000         8.516704714069433E-007
   111.256875000000         8.178559355979245E-007
   111.470625000000         7.487922097737855E-007
   111.684375000000         6.497266301578175E-007
   111.898125000000         5.273901808958592E-007
   112.111875000000         3.895115534379660E-007
   112.325625000000         2.442816920032999E-007
   112.539375000000         9.980741913066897E-008
   112.753125000000        -3.640712107610431E-008
   112.966875000000        -1.579152145526019E-007
   113.180625000000        -2.596879599438910E-007
   113.394375000000        -3.383573843271692E-007
   113.608125000000        -3.923286928946634E-007
   113.821875000000        -4.217582477240981E-007
   114.035625000000        -4.284041531566634E-007
   114.249375000000        -4.153658852037493E-007
   114.463125000000        -3.867374918730582E-007
   114.676875000000        -3.472048863031150E-007
   114.890625000000        -3.016212058760823E-007
   115.104375000000        -2.545948798032974E-007
   115.318125000000        -2.101229262761793E-007
   115.531875000000        -1.712973079800497E-007
   115.745625000000        -1.401053398961539E-007
   115.959375000000        -1.173367651166510E-007
   116.173125000000        -1.026009112993413E-007
   116.386875000000        -9.444808857372490E-008
   116.600625000000        -9.058085732706722E-008
   116.814375000000        -8.813367697610167E-008
   117.028125000000        -8.399431001378861E-008
   117.241875000000        -7.513758862773818E-008
   117.455625000000        -5.894193679422032E-008
   117.669375000000        -3.346134277396829E-008
   117.883125000000         2.369953341520037E-009
   118.096875000000         4.861639169561213E-008
   118.310625000000         1.043123318521975E-007
   118.524375000000         1.675260729301015E-007
   118.738125000000         2.355090639611883E-007
   118.951875000000         3.049154877841921E-007
   119.165625000000         3.720716190011657E-007
   119.379375000000         4.332704861610724E-007
   119.593125000000         4.850657062553236E-007
   119.806875000000         5.245390057895481E-007
   120.020625000000         5.495187959715599E-007
   120.234375000000         5.587319397670732E-007
   120.448125000000         5.518770848281821E-007
   120.661875000000         5.296150686268385E-007
   120.875625000000         4.934792927328372E-007
   121.089375000000         4.457159627216483E-007
   121.303125000000         3.890700941466117E-007
   121.516875000000         3.265376851846760E-007
   121.730625000000         2.611070835452043E-007
   121.944375000000         1.955131280694591E-007
   122.158125000000         1.320261063461803E-007
   122.371875000000         7.229410260023108E-008
   122.585625000000         1.725224377403903E-008
   122.799375000000        -3.289385143761056E-008
   123.013125000000        -7.860990161699036E-008
   123.226875000000        -1.209063223587615E-007
   123.440625000000        -1.611555394821675E-007
   123.654375000000        -2.008707194869200E-007
   123.868125000000        -2.414668691934656E-007