  -1.60312500000000        -1.183885195010288E-025
  -1.38937500000000         4.835460951208041E-019
  -1.17562500000000         3.437238086231692E-018
 -0.961875000000000         1.666527380387559E-017
 -0.748125000000000         6.507604806051617E-017
 -0.534375000000000         2.135591831407305E-016
 -0.320625000000000         6.005385927374457E-016
 -0.106875000000000         1.469056478424415E-015
  0.106875000000000         3.172342058918779E-015
  0.320625000000000         6.139088094476779E-015
  0.534375000000000         1.080627966174440E-014
  0.748125000000000         1.753930415099274E-014
  0.961875000000000         2.655335099361600E-014
   1.17562500000000         3.783241983061273E-014
   1.38937500000000         5.102787060574217E-014
   1.60312500000000         6.536408040648385E-014
   1.81687500000000         7.954675129821283E-014
   2.03062500000000         9.171210061646599E-014
   2.24437500000000         9.947468723588204E-014
   2.45812500000000         1.000062117478377E-013
   2.67187500000000         9.027523203782983E-014
   2.88562500000000         6.728190958524377E-014
   3.09937500000000         2.844202239314893E-014
   3.31312500000000        -2.810369352309824E-014
   3.52687500000000        -1.031594302245343E-013
   3.74062500000000        -1.962584160572888E-013
   3.95437500000000        -3.055630977673844E-013
   4.16812500000000        -4.279770914741319E-013
   4.38187500000000        -5.593869313603902E-013
   4.59562500000000        -6.950309369740401E-013
   4.80937500000000        -8.300603144077063E-013
   5.02312500000000        -9.600398037635208E-013
   5.23687500000000        -1.081440331447731E-012
   5.45062500000000        -1.191947050151222E-012
   5.66437500000000        -1.290590413024790E-012
   5.87812500000000        -1.377646647071774E-012
   6.09187500000000        -1.454240539746170E-012
   6.30562500000000        -1.521852188913441E-012
   6.51937500000000        -1.581746359042219E-012
   6.73312500000000        -1.634300369828492E-012
   6.94687500000000        -1.678689338763489E-012
   7.16062500000000        -1.712598952800173E-012
   7.37437500000000        -1.732494341837401E-012
   7.58812500000000        -1.733968171038601E-012
   7.80187500000000        -1.712481106168356E-012
   8.01562500000000        -1.664207703449837E-012
   8.22937500000000        -1.586868034304743E-012
   8.44312500000000        -1.480359100414986E-012
   8.65687500000000        -1.347117359295301E-012
   8.87062500000000        -1.192057993114977E-012
   9.08437500000000        -1.022056847541219E-012
   9.29812500000000        -8.451536399981024E-013
   9.51187500000000        -6.694364649198908E-013
   9.72562500000000        -5.019536936795891E-013
   9.93937500000000        -3.477727917391780E-013
   10.1531250000000        -2.093344429605455E-013
   10.3668750000000        -8.633636238015304E-014
   10.5806250000000         2.389108078154558E-014
   10.7943750000000         1.256070218764600E-013
   11.0081250000000         2.235491088707961E-013
   11.2218750000000         3.217387757394439E-013
   11.4356250000000         4.224609844513416E-013
   11.6493750000000         5.256079224114729E-013
   11.8631250000000         6.285891125442574E-013
   12.0768750000000         7.267183385917263E-013
   12.2906250000000         8.142715118590895E-013
   12.5043750000000         8.857313067237151E-013
   12.7181250000000         9.372516728457751E-013
   12.9318750000000         9.678616411745453E-013
   13.1456250000000         9.802835980627830E-013
   13.3593750000000         9.810869243320085E-013
   13.5731250000000         9.801319627327097E-013
   13.7868750000000         9.893826722648755E-013
   14.0006250000000         1.021214207892575E-012
   14.2143750000000         1.086545532664397E-012
   14.4281250000000         1.193088346254712E-012
   14.6418750000000         1.343946150325727E-012
   14.8556250000000         1.536972602581850E-012
   15.0693750000000         1.764838582476909E-012
   15.2831250000000         2.015905670957290E-012
   15.4968750000000         2.275672829120332E-012
   15.7106250000000         2.528678669343321E-012
   15.9243750000000         2.760362353268155E-012
   16.1381250000000         2.958752635019229E-012
   16.3518750000000         3.115647007571664E-012
   16.5656250000000         3.227090382535891E-012
   16.7793750000000         3.293191570187553E-012
   16.9931250000000         3.317416291684367E-012
   17.2068750000000         3.305370192765477E-012
   17.4206250000000         3.263508871850808E-012
   17.6343750000000         3.198003574505841E-012
   17.8481250000000         3.113866083883103E-012
   18.0618750000000         3.014596396224037E-012
   18.2756250000000         2.902256084910933E-012
   18.4893750000000         2.778091007165284E-012
   18.7031250000000         2.643197368694707E-012
   18.9168750000000         2.499447146695659E-012
   19.1306250000000         2.350091975444783E-012
   19.3443750000000         2.200116791251239E-012
   19.5581250000000         2.056205818019504E-012
   19.7718750000000         1.926216187072893E-012
   19.9856250000000         1.818433112828491E-012
   20.1993750000000         1.740564639949913E-012
   20.4131250000000         1.698784684769935E-012
   20.6268750000000         1.696953580688092E-012
   20.8406250000000         1.736132223338762E-012
   21.0543750000000         1.814479138687224E-012
   21.2681250000000         1.927514549427061E-012
   21.4818750000000         2.068690456980149E-012
   21.6956250000000         2.230149989671964E-012
   21.9093750000000         2.403513674295402E-012
   22.1231250000000         2.580641831995810E-012
   22.3368750000000         2.754205816220824E-012
   22.5506250000000         2.918037139296438E-012
   22.7643750000000         3.067318398955022E-012
   22.9781250000000         3.198585090105822E-012
   23.1918750000000         3.309651596231823E-012
   23.4056250000000         3.399483808336625E-012
   23.6193750000000         3.468131075109837E-012
   23.8331250000000         3.516648727701278E-012
   24.0468750000000         3.547116262207617E-012
   24.2606250000000         3.562584679277476E-012
   24.4743750000000         3.567058586471206E-012
   24.6881250000000         3.565343311003490E-012
   24.9018750000000         3.562830498589888E-012
   25.1156250000000         3.565138395726896E-012
   25.3293750000000         3.577794168858050E-012
   25.5431250000000         3.605796702820735E-012
   25.7568750000000         3.653328731045056E-012
   25.9706250000000         3.723540188789827E-012
   26.1843750000000         3.818500250478231E-012
   26.3981250000000         3.939188092469158E-012
   26.6118750000000         4.085760967890097E-012
   26.8256250000000         4.257727375562894E-012
   27.0393750000000         4.454086282744461E-012
   27.2531250000000         4.673495162497458E-012
   27.4668750000000         4.914215847517386E-012
   27.6806250000000         5.173962687579385E-012
   27.8943750000000         5.449672322963794E-012
   28.1081250000000         5.737299339845907E-012
   28.3218750000000         6.031622829199020E-012
   28.5356250000000         6.326243991794872E-012
   28.7493750000000         6.613818523189996E-012
   28.9631250000000         6.886524337022317E-012
   29.1768750000000         7.136673937758931E-012
   29.3906250000000         7.357535148365153E-012
   29.6043750000000         7.544087307814530E-012
   29.8181250000000         7.693684239160891E-012
   30.0318750000000         7.806437894911728E-012
   30.2456250000000         7.885314172482951E-012
   30.4593750000000         7.935799147695978E-012
   30.6731250000000         7.965331102676448E-012
   30.8868750000000         7.982402300867596E-012
   31.1006250000000         7.995577420739797E-012
   31.3143750000000         8.012579502063151E-012
   31.5281250000000         8.039490605828693E-012
   31.7418750000000         8.080290786621473E-012
   31.9556250000000         8.136671383349840E-012
   32.1693750000000         8.208237666990350E-012
   32.3831250000000         8.292917735447674E-012
   32.5968750000000         8.387553688943643E-012
   32.8106250000000         8.488568041444587E-012
   33.0243750000000         8.592524261432476E-012
   33.2381250000000         8.696486108154964E-012
   33.4518750000000         8.798265714106307E-012
   33.6656250000000         8.896346835883668E-012
   33.8793750000000         8.989723207356836E-012
   34.0931250000000         9.077560649288201E-012
   34.3068750000000         9.158902231003893E-012
   34.5206250000000         9.232473162778499E-012
   34.7343750000000         9.296570497044528E-012
   34.9481250000000         9.349152625526672E-012
   35.1618750000000         9.388147253914761E-012
   35.3756250000000         9.411775167324361E-012
   35.5893750000000         9.419070117715681E-012
   35.8031250000000         9.410227737617430E-012
   36.0168750000000         9.386975332339248E-012
   36.2306250000000         9.352703685218118E-012
   36.4443750000000         9.312359614572425E-012
   36.6581250000000         9.272221205263955E-012
   36.8718750000000         9.239367953197512E-012
   37.0856250000000         9.221099735723627E-012
   37.2993750000000         9.224176936582031E-012
   37.5131250000000         9.254161985356572E-012
   37.7268750000000         9.314814578456456E-012
   37.9406250000000         9.407626681921426E-012
   38.1543750000000         9.531607638125026E-012
   38.3681250000000         9.683300362147867E-012
   38.5818750000000         9.857103513011594E-012
   38.7956250000000         1.004573846038288E-011
   39.0093750000000         1.024101717409706E-011
   39.2231250000000         1.043465569960627E-011
   39.4368750000000         1.061913621454583E-011
   39.6506250000000         1.078847594347320E-011
   39.8643750000000         1.093881462787576E-011
   40.0781250000000         1.106887891736698E-011
   40.2918750000000         1.117997410560223E-011
   40.5056250000000         1.127577376675608E-011
   40.7193750000000         1.136185689858936E-011
   40.9331250000000         1.144501426222221E-011
   41.1468750000000         1.153236495712532E-011
   41.3606250000000         1.163060619863819E-011
   41.5743750000000         1.174530747710396E-011
   41.7881250000000         1.188039528807592E-011
   42.0018750000000         1.203796493861778E-011
   42.2156250000000         1.221823393820517E-011
   42.4293750000000         1.241992866505107E-011
   42.6431250000000         1.264066020328956E-011
   42.8568750000000         1.287744308596544E-011
   43.0706250000000         1.312722034043392E-011
   43.2843750000000         1.338719277730508E-011
   43.4981250000000         1.365497445051096E-011
   43.7118750000000         1.392858431968091E-011
   43.9256250000000         1.420624109070268E-011
   44.1393750000000         1.448603547871756E-011
   44.3531250000000         1.476558445299998E-011
   44.5668750000000         1.504181376929496E-011
   44.7806250000000         1.531081793235912E-011
   44.9943750000000         1.556798305493641E-011
   45.2081250000000         1.580827991950062E-011
   45.4218750000000         1.602676259513080E-011
   45.6356250000000         1.621906191343814E-011
   45.8493750000000         1.638197738461140E-011
   46.0631250000000         1.651382952833811E-011
   46.2768750000000         1.661468006399763E-011
   46.4906250000000         1.668628470517804E-011
   46.7043750000000         1.673179845156557E-011
   46.9181250000000         1.675526534508036E-011
   47.1318750000000         1.676107921563957E-011
   47.3456250000000         1.675338932857907E-011
   47.5593750000000         1.673567462778031E-011
   47.7731250000000         1.671047380545940E-011
   47.9868750000000         1.667943836517829E-011
   48.2006250000000         1.664358790891010E-011
   48.4143750000000         1.660376599628977E-011
   48.6281250000000         1.656122787484673E-011
   48.8418750000000         1.651812785101749E-011
   49.0556250000000         1.647798416540657E-011
   49.2693750000000         1.644577858810681E-011
   49.4831250000000         1.642785748863819E-011
   49.6968750000000         1.643148267487545E-011
   49.9106250000000         1.646417666559175E-011
   50.1243750000000         1.653285347037132E-011
   50.3381250000000         1.664299612755462E-011
   50.5518750000000         1.679790719231512E-011
   50.7656250000000         1.699815834844994E-011
   50.9793750000000         1.724138406576951E-011
   51.1931250000000         1.752242248920377E-011
   51.4068750000000         1.783376244439437E-011
   51.6206250000000         1.816628295467311E-011
   51.8343750000000         1.851008820948417E-011
   52.0481250000000         1.885543663820265E-011
   52.2618750000000         1.919352930240283E-011
   52.4756250000000         1.951708622813116E-011
   52.6893750000000         1.982065087535176E-011
   52.9031250000000         2.010061095311300E-011
   53.1168750000000         2.035493239388836E-011
   53.3306250000000         2.058268813372045E-011
   53.5443750000000         2.078356816098850E-011
   53.7581250000000         2.095728412546652E-011
   53.9718750000000         2.110326645586333E-011
   54.1856250000000         2.122049928364176E-011
   54.3993750000000         2.130761376352893E-011
   54.6131250000000         2.136326204946658E-011
   54.8268750000000         2.138662332995446E-011
   55.0406250000000         2.137806608100139E-011
   55.2543750000000         2.133964548659603E-011
   55.4681250000000         2.127552724441852E-011
   55.6818750000000         2.119205288575692E-011
   55.8956250000000         2.109748274990676E-011
   56.1093750000000         2.100138950502672E-011
   56.3231250000000         2.091381350133311E-011
   56.5368750000000         2.084418101847988E-011
   56.7506250000000         2.080025872294758E-011
   56.9643750000000         2.078728198346115E-011
   57.1781250000000         2.080738104996824E-011
   57.3918750000000         2.085939965017568E-011
   57.6056250000000         2.093919969229728E-011
   57.8193750000000         2.104033418138864E-011
   58.0331250000000         2.115509937754943E-011
   58.2468750000000         2.127564548270752E-011
   58.4606250000000         2.139507557775086E-011
   58.6743750000000         2.150831276496669E-011
   58.8881250000000         2.161265708112902E-011
   59.1018750000000         2.170785714310826E-011
   59.3156250000000         2.179584063842740E-011
   59.5293750000000         2.188015539677847E-011
   59.7431250000000         2.196518407350932E-011
   59.9568750000000         2.205551696896264E-011
   60.1706250000000         2.215538333136265E-011
   60.3843750000000         2.226853925623874E-011
   60.5981250000000         2.239835943442096E-011
   60.8118750000000         2.254830687169804E-011
   61.0256250000000         2.272261019307885E-011
   61.2393750000000         2.292673074175363E-011
   61.4531250000000         2.316787461722390E-011
   61.6668750000000         2.345480813197638E-011
   61.8806250000000         2.379740790511967E-011
   62.0943750000000         2.420553931574878E-011
   62.3081250000000         2.468757396411083E-011
   62.5218750000000         2.524870569718704E-011
   62.7356250000000         2.588928704067416E-011
   62.9493750000000         2.660345036529551E-011
   63.1631250000000         2.737839249587727E-011
   63.3768750000000         2.819429918536430E-011
   63.5906250000000         2.902512825450153E-011
   63.8043750000000         2.984006606878407E-011
   64.0181250000000         3.060555709658402E-011
   64.2318750000000         3.128761992689882E-011
   64.4456250000000         3.185415678552672E-011
   64.6593750000000         3.227701755107479E-011
   64.8731250000000         3.253363125684446E-011
   65.0868750000000         3.260808083565593E-011
   65.3006250000000         3.249168242327526E-011
   65.5143750000000         3.218309783525969E-011
   65.7281250000000         3.168822955568081E-011
   65.9418750000000         3.101991465103052E-011
   66.1556250000000         3.019773406924618E-011
   66.3693750000000         2.924777909654729E-011
   66.5831250000000         2.820239607452736E-011
   66.7968750000000         2.709995368774982E-011
   67.0106250000000         2.598410702601536E-011
   67.2243750000000         2.490272467546272E-011
   67.4381250000000         2.390615825178595E-011
   67.6518750000000         2.304486390821356E-011
   67.8656250000000         2.236649902208079E-011
   68.0793750000000         2.191262496132264E-011
   68.2931250000000         2.171559300406977E-011
   68.5068750000000         2.179562512672625E-011
   68.7206250000000         2.215882799892233E-011
   68.9343750000000         2.279627100852352E-011
   69.1481250000000         2.368427607684436E-011
   69.3618750000000         2.478607298209820E-011
   69.5756250000000         2.605452623414124E-011
   69.7893750000000         2.743555085599841E-011
   70.0031250000000         2.887209804537551E-011
   70.2168750000000         3.030786825106780E-011
   70.4306250000000         3.169063304205997E-011
   70.6443750000000         3.297481117050366E-011
   70.8581250000000         3.412307394258018E-011
   71.0718750000000         3.510704367441894E-011
   71.2856250000000         3.590729442823848E-011
   71.4993750000000         3.651278726711193E-011
   71.7131250000000         3.692006852762574E-011
   71.9268750000000         3.713253053885425E-011
   72.1406250000000         3.715977632641537E-011
   72.3543750000000         3.701720468623724E-011
   72.5681250000000         3.672577234192190E-011
   72.7818750000000         3.631168258513282E-011
   72.9956250000000         3.580589493870594E-011
   73.2093750000000         3.524321700780410E-011
   73.4231250000000         3.466080969077312E-011
   73.6368750000000         3.409617840947546E-011
   73.8506250000000         3.358469306756642E-011
   74.0643750000000         3.315680185179118E-011
   74.2781250000000         3.283538995656126E-011
   74.4918750000000         3.263346165950442E-011
   74.7056250000000         3.255246083190070E-011
   74.9193750000000         3.258158239155069E-011
   75.1331250000000         3.269792354232048E-011
   75.3468750000000         3.286775671309426E-011
   75.5606250000000         3.304837749552193E-011
   75.7743750000000         3.319070188631634E-011
   75.9881250000000         3.324186987109681E-011
   76.2018750000000         3.314801321045010E-011
   76.4156250000000         3.285660620008061E-011
   76.6293750000000         3.231841760133479E-011
   76.8431250000000         3.148913159500033E-011
   77.0568750000000         3.033042031142560E-011
   77.2706250000000         2.881086544759741E-011
   77.4843750000000         2.690668662739635E-011
   77.6981250000000         2.460252361129502E-011
   77.9118750000000         2.189222564709054E-011
   78.1256250000000         1.877980650993347E-011
   78.3393750000000         1.528029953249864E-011
   78.5531250000000         1.142058026711086E-011
   78.7668750000000         7.239760735401038E-012
   78.9806250000000         2.789226337111010E-012
   79.1943750000000        -1.867986690346810E-012
   79.4081250000000        -6.658542140135560E-012
   79.6218750000000        -1.150069209061706E-011
   79.8356250000000        -1.630688740385180E-011
   80.0493750000000        -2.098673453883107E-011
   80.2631250000000        -2.545013891949508E-011
   80.4768750000000        -2.961064676646429E-011
   80.6906250000000        -3.338836352903690E-011
   80.9043750000000        -3.671278453941577E-011
   81.1181250000000        -3.952504605013713E-011
   81.3318750000000        -4.177971893851408E-011
   81.5456250000000        -4.344608978547026E-011
   81.7593750000000        -4.450891373236688E-011
   81.9731250000000        -4.496869691201492E-011
   82.1868750000000        -4.484145070687470E-011
   82.4006250000000        -4.415802493932904E-011
   82.6143750000000        -4.296305934769466E-011
   82.8281250000000        -4.131324506606210E-011
   83.0418750000000        -3.927548908412964E-011
   83.2556250000000        -3.692443416100547E-011
   83.4693750000000        -3.433976892207615E-011
   83.6831250000000        -3.160330015234009E-011
   83.8968750000000        -2.879591588440409E-011
   84.1106250000000        -2.599468863136971E-011
   84.3243750000000        -2.327009344911504E-011
   84.5381250000000        -2.068371334396519E-011
   84.7518750000000        -1.828640241669788E-011
   84.9656250000000        -1.611700979060094E-011
   85.1793750000000        -1.420180534291290E-011
   85.3931250000000        -1.255446896692120E-011
   85.6068750000000        -1.117667835398195E-011
   85.8206250000000        -1.005908020136547E-011
   86.0343750000000        -9.182769997182011E-012
   86.2481250000000        -8.520818009062943E-012
   86.4618750000000        -8.040025880242191E-012
   86.6756250000000        -7.702605350850537E-012
   86.8893750000000        -7.467841138507426E-012
   87.1031250000000        -7.293560530093025E-012
   87.3168750000000        -7.137544551606033E-012
   87.5306250000000        -6.958695157645289E-012
   87.7443750000000        -6.718187566770920E-012
   87.9581250000000        -6.380484234194397E-012
   88.1718750000000        -5.914392907563609E-012
   88.3856250000000        -5.294054746171861E-012
   88.5993750000000        -4.499954344115661E-012
   88.8131250000000        -3.519889707771475E-012
   89.0268750000000        -2.349862343985502E-012
   89.2406250000000        -9.948231907959418E-013
   89.4543750000000         5.309324896047779E-013
   89.6681250000000         2.203751431586415E-012
   89.8818750000000         3.991069435047911E-012
   90.0956250000000         5.852506436183633E-012
   90.3093750000000         7.741552704223891E-012
   90.5231250000000         9.607827370617867E-012
   90.7368750000000         1.139976814053224E-011
   90.9506250000000         1.306777190429520E-011
   91.1643750000000         1.456723359214269E-011
   91.3781250000000         1.586147837185957E-011
   91.5918750000000         1.692439449249037E-011
   91.8056250000000         1.774214339297205E-011
   92.0193750000000         1.831421141685948E-011
   92.2331250000000         1.865348137899916E-011
   92.4468750000000         1.878523637479229E-011
   92.6606250000000         1.874536769963157E-011
   92.8743750000000         1.857773027451542E-011
   93.0881250000000         1.833103229997384E-011
   93.3018750000000         1.805536989172132E-011
   93.5156250000000         1.779877099852902E-011
   93.7293750000000         1.760392578881176E-011
   93.9431250000000         1.750535508029782E-011
   94.1568750000000         1.752717558548624E-011
   94.3706250000000         1.768164137042765E-011
   94.5843750000000         1.796830969247677E-011
   94.7981250000000         1.837418725813757E-011
   95.0118750000000         1.887449731329795E-011
   95.2256250000000         1.943419703729635E-011
   95.4393750000000         2.001006729801192E-011
   95.6531250000000         2.055331325862168E-011
   95.8668750000000         2.101243370360531E-011
   96.0806250000000         2.133635576315970E-011
   96.2943750000000         2.147751486018613E-011
   96.5081250000000         2.139477881444480E-011
   96.7218750000000         2.105610722681801E-011
   96.9356250000000         2.044075718251857E-011
   97.1493750000000         1.954082551632026E-011
   97.3631250000000         1.836232646382886E-011
   97.5768750000000         1.692541336253734E-011
   97.7906250000000         1.526399734027481E-011
   98.0043750000000         1.342479356541510E-011
   98.2181250000000         1.146561858371458E-011
   98.4318750000000         9.453325360403041E-012
   98.6456250000000         7.461235929661487E-012
   98.8593750000000         5.566280042326462E-012
   99.0731250000000         3.845764270651323E-012
   99.2868750000000         2.374116672252949E-012
   99.5006250000000         1.219445717926280E-012
   99.7143750000000         4.402249625730231E-013
   99.9281250000000         8.215700166236976E-014
   100.141875000000         1.754423559779402E-013
   100.355625000000         7.325654565287862E-013
   100.569375000000         1.746902310453304E-012
   100.783125000000         3.192303791090615E-012
   100.996875000000         5.023588983710238E-012
   101.210625000000         7.178314274150987E-012
   101.424375000000         9.579486702091337E-012
   101.638125000000         1.213928059689507E-011
   101.851875000000         1.476334600801951E-011
   102.065625000000         1.735560597164557E-011
   102.279375000000         1.982304761137701E-011
   102.493125000000         2.208025411437603E-011
   102.706875000000         2.405335138448364E-011
   102.920625000000         2.568319684258825E-011
   103.134375000000         2.692756690971935E-011
   103.348125000000         2.776244924020401E-011
   103.561875000000         2.818234366804569E-011
   103.775625000000         2.819978777922012E-011
   103.989375000000         2.784412902112579E-011
   104.203125000000         2.715972533561487E-011
   104.416875000000         2.620366497398310E-011
   104.630625000000         2.504314500255088E-011
   104.844375000000         2.375234737258882E-011
   105.058125000000         2.240917348299989E-011
   105.271875000000         2.109151246028548E-011
   105.485625000000         1.987349910244599E-011
   105.699375000000         1.882158742204736E-011
   105.913125000000         1.799098955439836E-011
   106.126875000000         1.742242514818264E-011
   106.340625000000         1.713972931713057E-011
   106.554375000000         1.714850841705523E-011
   106.768125000000         1.743606967883580E-011
   106.981875000000         1.797271091159947E-011
   107.195625000000         1.871447121446848E-011
   107.409375000000         1.960694545664271E-011
   107.623125000000         2.058990476992578E-011
   107.836875000000         2.160249665407554E-011
   108.050625000000         2.258797100920781E-011
   108.264375000000         2.349810312705370E-011
   108.478125000000         2.429630137081101E-011
   108.691875000000         2.495947870446257E-011
   108.905625000000         2.547847452891608E-011
   109.119375000000         2.585698695923567E-011
   109.333125000000         2.610950226331599E-011
   109.546875000000         2.625826363412479E-011
   109.760625000000         2.633004907543737E-011
   109.974375000000         2.635286680244536E-011
   110.188125000000         2.635310883174988E-011
   110.401875000000         2.635357608013681E-011
   110.615625000000         2.637202455125778E-011
   110.829375000000         2.642081508454223E-011
   111.043125000000         2.650706074658216E-011
   111.256875000000         2.663343053931352E-011
   111.470625000000         2.679916706847788E-011
   111.684375000000         2.700122850696741E-011
   111.898125000000         2.723535308549690E-011
   112.111875000000         2.749688407481341E-011
   112.325625000000         2.778150710952508E-011
   112.539375000000         2.808560733253215E-011
   112.753125000000         2.840669186322206E-011
   112.966875000000         2.874345593595893E-011
   113.180625000000         2.909593577609659E-011
   113.394375000000         2.946549308837413E-011
   113.608125000000         2.985459608671112E-011
   113.821875000000         3.026647696003946E-011
   114.035625000000         3.070442711948663E-011
   114.249375000000         3.117080606535547E-011
   114.463125000000         3.166578605461797E-011
   114.676875000000         3.218586728240102E-011
   114.890625000000         3.272245579363215E-011
   115.104375000000         3.326055258269057E-011
   115.318125000000         3.377810726090086E-011
   115.531875000000         3.424588371043067E-011
   115.745625000000         3.462850106800265E-011
   115.959375000000         3.488625044429304E-011
   116.173125000000         3.497807513084499E-011
   116.386875000000         3.486519164177773E-011
   116.600625000000         3.451519814411227E-011
   116.814375000000         3.390621872179636E-011
   117.028125000000         3.303056126734028E-011
   117.241875000000         3.189742951617980E-011
   117.455625000000         3.053443063533488E-011
   117.669375000000         2.898738118889441E-011
   117.883125000000         2.731853825048128E-011
   118.096875000000         2.560332797316681E-011
   118.310625000000         2.392565347342090E-011
   118.524375000000         2.237246168279091E-011
   118.738125000000         2.102792267749469E-011
   118.951875000000         1.996773724881660E-011
   119.165625000000         1.925415714387745E-011
   119.379375000000         1.893208483017670E-011
   119.593125000000         1.902645209957970E-011
   119.806875000000         1.954112233713497E-011
   120.020625000000         2.045913031146816E-011
   120.234375000000         2.174426763248348E-011
   120.448125000000         2.334360892377005E-011
   120.661875000000         2.519075198414358E-011
   120.875625000000         2.720945565393752E-011
   121.089375000000         2.931752339289318E-011
   121.303125000000         3.143046228981678E-011
   121.516875000000         3.346510664727990E-011
   121.730625000000         3.534280821357881E-011
   121.944375000000         3.699250559891729E-011
   122.158125000000         3.835325733368611E-011
   122.371875000000         3.937653043994050E-011
   122.585625000000         4.002807373005455E-011
   122.799375000000         4.028923427607039E-011
   123.013125000000         4.015783463741456E-011
   123.226875000000         3.964833220400054E-011
   123.440625000000         3.879123658732539E-011
   123.654375000000         3.763196787220863E-011
   123.868125000000         3.622884214479266E-011