  -1.60312500000000        -2.628998487322806E-024
  -1.38937500000000        -1.870996433016516E-023
  -1.17562500000000        -1.079763527778719E-022
 -0.961875000000000        -5.149223153949853E-022
 -0.748125000000000        -2.012977938536862E-021
 -0.534375000000000        -6.555846608224848E-021
 -0.320625000000000        -1.783460354922468E-020
 -0.106875000000000        -4.051602479846566E-020
  0.106875000000000        -7.541030528606823E-020
  0.320625000000000        -1.068867908064230E-019
  0.534375000000000        -8.221175248470165E-020
  0.748125000000000         1.114272992830796E-019
  0.961875000000000         6.665938441631057E-019
   1.17562500000000         1.857143024202658E-018
   1.38937500000000         3.996597661159016E-018
   1.60312500000000         7.369362016356061E-018
   1.81687500000000         1.211282291418265E-017
   2.03062500000000         1.801101198807535E-017
   2.24437500000000         2.428972769905609E-017
   2.45812500000000         2.939511962033686E-017
   2.67187500000000         3.076886867285250E-017
   2.88562500000000         2.467996078974658E-017
   3.09937500000000         6.160082550414457E-018
   3.31312500000000        -3.088831790481130E-017
   3.52687500000000        -9.341451957445474E-017
   3.74062500000000        -1.888980901501947E-016
   3.95437500000000        -3.248292622887746E-016
   4.16812500000000        -5.080109038338092E-016
   4.38187500000000        -7.439548931299212E-016
   4.59562500000000        -1.036416409534620E-015
   4.80937500000000        -1.386936559891607E-015
   5.02312500000000        -1.794705101559368E-015
   5.23687500000000        -2.256570253892946E-015
   5.45062500000000        -2.767313243987595E-015
   5.66437500000000        -3.320167603846929E-015
   5.87812500000000        -3.907434975931281E-015
   6.09187500000000        -4.521160507859036E-015
   6.30562500000000        -5.153732091337277E-015
   6.51937500000000        -5.798279135257135E-015
   6.73312500000000        -6.448914095228080E-015
   6.94687500000000        -7.100774281974933E-015
   7.16062500000000        -7.749765179451088E-015
   7.37437500000000        -8.392206890591879E-015
   7.58812500000000        -9.024405210062308E-015
   7.80187500000000        -9.642314821166210E-015
   8.01562500000000        -1.024129926115860E-014
   8.22937500000000        -1.081617379643284E-014
   8.44312500000000        -1.136134158432460E-014
   8.65687500000000        -1.187121688269078E-014
   8.87062500000000        -1.234079348712205E-014
   9.08437500000000        -1.276628520415218E-014
   9.29812500000000        -1.314560399220635E-014
   9.51187500000000        -1.347870950629632E-014
   9.72562500000000        -1.376779821293372E-014
   9.93937500000000        -1.401715545215434E-014
   10.1531250000000        -1.423290894454567E-014
   10.3668750000000        -1.442242780010317E-014
   10.5806250000000        -1.459374296606870E-014
   10.7943750000000        -1.475500355625763E-014
   11.0081250000000        -1.491392505734225E-014
   11.2218750000000        -1.507759297104115E-014
   11.4356250000000        -1.525238971488361E-014
   11.6493750000000        -1.544406926803800E-014
   11.8631250000000        -1.565799629336718E-014
   12.0768750000000        -1.589937416978357E-014
   12.2906250000000        -1.617328368928381E-014
   12.5043750000000        -1.648464622152740E-014
   12.7181250000000        -1.683784512832904E-014
   12.9318750000000        -1.723621556974549E-014
   13.1456250000000        -1.768142995770609E-014
   13.3593750000000        -1.817269283588439E-014
   13.5731250000000        -1.870621662338825E-014
   13.7868750000000        -1.927485203247932E-014
   14.0006250000000        -1.986805957942087E-014
   14.2143750000000        -2.047232860005481E-014
   14.4281250000000        -2.107205339857201E-014
   14.6418750000000        -2.165063851554706E-014
   14.8556250000000        -2.219185863345235E-014
   15.0693750000000        -2.268130937838339E-014
   15.2831250000000        -2.310761142482757E-014
   15.4968750000000        -2.346340973570781E-014
   15.7106250000000        -2.374584956171663E-014
   15.9243750000000        -2.395669005843437E-014
   16.1381250000000        -2.410207888137676E-014
   16.3518750000000        -2.419183964568778E-014
   16.5656250000000        -2.423847551118673E-014
   16.7793750000000        -2.425628543104168E-014
   16.9931250000000        -2.426056685827795E-014
   17.2068750000000        -2.426682041486830E-014
   17.4206250000000        -2.429020034570222E-014
   17.6343750000000        -2.434516761733321E-014
   17.8481250000000        -2.444529458414390E-014
   18.0618750000000        -2.460299974871859E-014
   18.2756250000000        -2.482924567920457E-014
   18.4893750000000        -2.513321622735684E-014
   18.7031250000000        -2.552179403728565E-014
   18.9168750000000        -2.599890310096956E-014
   19.1306250000000        -2.656489933933636E-014
   19.3443750000000        -2.721610936767452E-014
   19.5581250000000        -2.794450667613436E-014
   19.7718750000000        -2.873771256660354E-014
   19.9856250000000        -2.957961304322748E-014
   20.1993750000000        -3.045128173762817E-014
   20.4131250000000        -3.133227809385760E-014
   20.6268750000000        -3.220228619138374E-014
   20.8406250000000        -3.304272866782798E-014
   21.0543750000000        -3.383827988264588E-014
   21.2681250000000        -3.457818307938728E-014
   21.4818750000000        -3.525695888578445E-014
   21.6956250000000        -3.587462225798799E-014
   21.9093750000000        -3.643636305879363E-014
   22.1231250000000        -3.695161121590552E-014
   22.3368750000000        -3.743287251303852E-014
   22.5506250000000        -3.789429978608038E-014
   22.7643750000000        -3.835037518711706E-014
   22.9781250000000        -3.881458916026981E-014
   23.1918750000000        -3.929849196500483E-014
   23.4056250000000        -3.981113102163319E-014
   23.6193750000000        -4.035876481215399E-014
   23.8331250000000        -4.094502513560837E-014
   24.0468750000000        -4.157120620016592E-014
   24.2606250000000        -4.223668876516858E-014
   24.4743750000000        -4.293938361859277E-014
   24.6881250000000        -4.367613933936357E-014
   24.9018750000000        -4.444303467711329E-014
   25.1156250000000        -4.523546879180647E-014
   25.3293750000000        -4.604820595244669E-014
   25.5431250000000        -4.687546621834930E-014
   25.7568750000000        -4.771096069187917E-014
   25.9706250000000        -4.854794620189480E-014
   26.1843750000000        -4.937941470340955E-014
   26.3981250000000        -5.019846258067316E-014
   26.6118750000000        -5.099871689323234E-014
   26.8256250000000        -5.177475259540962E-014
   27.0393750000000        -5.252254497496233E-014
   27.2531250000000        -5.323986302916208E-014
   27.4668750000000        -5.392648563463051E-014
   27.6806250000000        -5.458424882134539E-014
   27.8943750000000        -5.521686265821537E-014
   28.1081250000000        -5.582972196945276E-014
   28.3218750000000        -5.642937615653713E-014
   28.5356250000000        -5.702304313519019E-014
   28.7493750000000        -5.761811313644094E-014
   28.9631250000000        -5.822154826560532E-014
   29.1768750000000        -5.883944675709964E-014
   29.3906250000000        -5.947669775007616E-014
   29.6043750000000        -6.013672641239569E-014
   29.8181250000000        -6.082135933282379E-014
   30.0318750000000        -6.153077109267707E-014
   30.2456250000000        -6.226340799544407E-014
   30.4593750000000        -6.301623747594632E-014
   30.6731250000000        -6.378500091584752E-014
   30.8868750000000        -6.456442617834966E-014
   31.1006250000000        -6.534866998064390E-014
   31.3143750000000        -6.613171392411808E-014
   31.5281250000000        -6.690775514858814E-014
   31.7418750000000        -6.767180133972257E-014
   31.9556250000000        -6.842003137133023E-014
   32.1693750000000        -6.915014087041153E-014
   32.3831250000000        -6.986156298330203E-014
   32.5968750000000        -7.055551615291700E-014
   32.8106250000000        -7.123490599517649E-014
   33.0243750000000        -7.190397049057016E-014
   33.2381250000000        -7.256780607350539E-014
   33.4518750000000        -7.323182244522438E-014
   33.6656250000000        -7.390123563612737E-014
   33.8793750000000        -7.458049655084282E-014
   34.0931250000000        -7.527291193187046E-014
   34.3068750000000        -7.598063877568575E-014
   34.5206250000000        -7.670476063543196E-014
   34.7343750000000        -7.744563980816461E-014
   34.9481250000000        -7.820349529454066E-014
   35.1618750000000        -7.897904773597403E-014
   35.3756250000000        -7.977420830640845E-014
   35.5893750000000        -8.059248037083176E-014
   35.8031250000000        -8.143920127321239E-014
   36.0168750000000        -8.232143307606924E-014
   36.2306250000000        -8.324734708352579E-014
   36.4443750000000        -8.422540133339073E-014
   36.6581250000000        -8.526311357910686E-014
   36.8718750000000        -8.636586769746154E-014
   37.0856250000000        -8.753572882275340E-014
   37.2993750000000        -8.877044358230076E-014
   37.5131250000000        -9.006300613740130E-014
   37.7268750000000        -9.140156279298660E-014
   37.9406250000000        -9.277018046468841E-014
   38.1543750000000        -9.414997952025578E-014
   38.3681250000000        -9.552082503215984E-014
   38.5818750000000        -9.686338367740230E-014
   38.7956250000000        -9.816095419001575E-014
   39.0093750000000        -9.940135465124109E-014
   39.2231250000000        -1.005782877936818E-013
   39.4368750000000        -1.016920688687936E-013
   39.6506250000000        -1.027496856956021E-013
   39.8643750000000        -1.037641486166285E-013
   40.0781250000000        -1.047531777498044E-013
   40.2918750000000        -1.057374207459204E-013
   40.5056250000000        -1.067385767081814E-013
   40.7193750000000        -1.077773961018301E-013
   40.9331250000000        -1.088718264857998E-013
   41.1468750000000        -1.100357323106069E-013
   41.3606250000000        -1.112780685618480E-013
   41.5743750000000        -1.126024938429582E-013
   41.7881250000000        -1.140075575447131E-013
   42.0018750000000        -1.154872065392019E-013
   42.2156250000000        -1.170315702892971E-013
   42.4293750000000        -1.186278680985254E-013
   42.6431250000000        -1.202612489446636E-013
   42.8568750000000        -1.219155157492982E-013
   43.0706250000000        -1.235738019403712E-013
   43.2843750000000        -1.252189916112979E-013
   43.4981250000000        -1.268341308861899E-013
   43.7118750000000        -1.284030222325554E-013
   43.9256250000000        -1.299107498238196E-013
   44.1393750000000        -1.313443337362882E-013
   44.3531250000000        -1.326935750362276E-013
   44.5668750000000        -1.339519906557993E-013
   44.7806250000000        -1.351176596543373E-013
   44.9943750000000        -1.361939054952131E-013
   45.2081250000000        -1.371896911135638E-013
   45.4218750000000        -1.381195211276199E-013
   45.6356250000000        -1.390028389110359E-013
   45.8493750000000        -1.398629866512785E-013
   46.0631250000000        -1.407256235767216E-013
   46.2768750000000        -1.416168356001154E-013
   46.4906250000000        -1.425612676521772E-013
   46.7043750000000        -1.435802258516243E-013
   46.9181250000000        -1.446901631164984E-013
   47.1318750000000        -1.459017013464708E-013
   47.3456250000000        -1.472191378335393E-013
   47.5593750000000        -1.486405909551661E-013
   47.7731250000000        -1.501587691432504E-013
   47.9868750000000        -1.517621701088791E-013
   48.2006250000000        -1.534364893660817E-013
   48.4143750000000        -1.551660614591223E-013
   48.6281250000000        -1.569351793959583E-013
   48.8418750000000        -1.587292506320948E-013
   49.0556250000000        -1.605354775864863E-013
   49.2693750000000        -1.623431144880738E-013
   49.4831250000000        -1.641434733460805E-013
   49.6968750000000        -1.659297595266331E-013
   49.9106250000000        -1.676966577764380E-013
   50.1243750000000        -1.694399411338235E-013
   50.3381250000000        -1.711562542348526E-013
   50.5518750000000        -1.728431168113709E-013
   50.7656250000000        -1.744990255341783E-013
   50.9793750000000        -1.761237343601052E-013
   51.1931250000000        -1.777185643750981E-013
   51.4068750000000        -1.792867259946419E-013
   51.6206250000000        -1.808336068972935E-013
   51.8343750000000        -1.823666961876518E-013
   52.0481250000000        -1.838954254601176E-013
   52.2618750000000        -1.854306968773838E-013
   52.4756250000000        -1.869842263506508E-013
   52.6893750000000        -1.885678496125651E-013
   52.9031250000000        -1.901927165681502E-013
   53.1168750000000        -1.918685777131335E-013
   53.3306250000000        -1.936032301897755E-013
   53.5443750000000        -1.954021984638799E-013
   53.7581250000000        -1.972685761395390E-013
   53.9718750000000        -1.992030900901191E-013
   54.1856250000000        -2.012044109952242E-013
   54.3993750000000        -2.032694679421600E-013
   54.6131250000000        -2.053939318416382E-013
   54.8268750000000        -2.075726784608007E-013
   55.0406250000000        -2.098002087850337E-013
   55.2543750000000        -2.120710548316007E-013
   55.4681250000000        -2.143801562624982E-013
   55.6818750000000        -2.167231581729145E-013
   55.8956250000000        -2.190966131502146E-013
   56.1093750000000        -2.214981030010577E-013
   56.3231250000000        -2.239261428436574E-013
   56.5368750000000        -2.263798755600111E-013
   56.7506250000000        -2.288584610092835E-013
   56.9643750000000        -2.313602795993875E-013
   57.1781250000000        -2.338817387674816E-013
   57.3918750000000        -2.364160007576731E-013
   57.6056250000000        -2.389516967044345E-013
   57.8193750000000        -2.414718554625838E-013
   58.0331250000000        -2.439535115374238E-013
   58.2468750000000        -2.463681042667083E-013
   58.4606250000000        -2.486828600522879E-013
   58.6743750000000        -2.508634240162785E-013
   58.8881250000000        -2.528778394953715E-013
   59.1018750000000        -2.547013344426812E-013
   59.3156250000000        -2.563215624486188E-013
   59.5293750000000        -2.577437574102573E-013
   59.7431250000000        -2.589951163698514E-013
   59.9568750000000        -2.601272985622894E-013
   60.1706250000000        -2.612163439464613E-013
   60.3843750000000        -2.623596144933435E-013
   60.5981250000000        -2.636693110370276E-013
   60.8118750000000        -2.652626244309909E-013
   61.0256250000000        -2.672492259207774E-013
   61.2393750000000        -2.697172729932922E-013
   61.4531250000000        -2.727191574279439E-013
   61.6668750000000        -2.762588496564271E-013
   61.8806250000000        -2.802829016280541E-013
   62.0943750000000        -2.846764602062070E-013
   62.3081250000000        -2.892660321509529E-013
   62.5218750000000        -2.938297498041141E-013
   62.7356250000000        -2.981148772861341E-013
   62.9493750000000        -3.018620305507193E-013
   63.1631250000000        -3.048339472665079E-013
   63.3768750000000        -3.068465022962217E-013
   63.5906250000000        -3.077986817896338E-013
   63.8043750000000        -3.076976379118795E-013
   64.0181250000000        -3.066754136020591E-013
   64.2318750000000        -3.049942045639137E-013
   64.4456250000000        -3.030377502516715E-013
   64.6593750000000        -3.012876683835667E-013
   64.8731250000000        -3.002853170634194E-013
   65.0868750000000        -3.005812417398654E-013
   65.3006250000000        -3.026757457458890E-013
   65.5143750000000        -3.069559521811997E-013
   65.7281250000000        -3.136355584783342E-013
   65.9418750000000        -3.227039821861660E-013
   66.1556250000000        -3.338918370094296E-013
   66.3693750000000        -3.466585004039838E-013
   66.5831250000000        -3.602062426211910E-013
   66.7968750000000        -3.735232824664915E-013
   67.0106250000000        -3.854552496973879E-013
   67.2243750000000        -3.948019413028538E-013
   67.4381250000000        -4.004332173904652E-013
   67.6518750000000        -4.014150346656300E-013
   67.8656250000000        -3.971348629922808E-013
   68.0793750000000        -3.874140229623420E-013
   68.2931250000000        -3.725942811335558E-013
   68.5068750000000        -3.535872300390484E-013
   68.7206250000000        -3.318761567631836E-013
   68.9343750000000        -3.094638083152256E-013
   69.1481250000000        -2.887632247723600E-013
   69.3618750000000        -2.724334123040173E-013
   69.5756250000000        -2.631668910984882E-013
   69.7893750000000        -2.634409859762621E-013
   70.0031250000000        -2.752497636109440E-013
   70.2168750000000        -2.998374003218365E-013
   70.4306250000000        -3.374565627226383E-013
   70.6443750000000        -3.871767584740024E-013
   70.8581250000000        -4.467674843585075E-013
   71.0718750000000        -5.126782848820839E-013
   71.2856250000000        -5.801336825902350E-013
   71.4993750000000        -6.433542780236097E-013
   71.7131250000000        -6.959065018407789E-013
   71.9268750000000        -7.311733308818492E-013
   72.1406250000000        -7.429264131515913E-013
   72.3543750000000        -7.259676665825297E-013
   72.5681250000000        -6.767965261708442E-013
   72.7818750000000        -5.942482519257509E-013
   72.9956250000000        -4.800401291384168E-013
   73.2093750000000        -3.391584460355148E-013
   73.4231250000000        -1.800198997576485E-013
   73.6368750000000        -1.434816672674038E-014
   73.8506250000000         1.432791897747749E-013
   74.0643750000000         2.762372172003172E-013
   74.2781250000000         3.670082485906403E-013
   74.4918750000000         3.986456982758411E-013
   74.7056250000000         3.564703295454408E-013
   74.9193750000000         2.298844610017239E-013
   75.1331250000000         1.415480217248412E-014
   75.3468750000000        -2.880127878294772E-013
   75.5606250000000        -6.652981500458926E-013
   75.7743750000000        -1.097182388362601E-012
   75.9881250000000        -1.554125247977522E-012
   76.2018750000000        -1.998634363124158E-012
   76.4156250000000        -2.387294433172650E-012
   76.6293750000000        -2.673743413564273E-012
   76.8431250000000        -2.812487568202722E-012
   77.0568750000000        -2.763344970622614E-012
   77.2706250000000        -2.496206132714560E-012
   77.4843750000000        -1.995712312656480E-012
   77.6981250000000        -1.265387509105269E-012
   77.9118750000000        -3.307296203775904E-013
   78.1256250000000         7.592207877830459E-013
   78.3393750000000         1.932252196104297E-012
   78.5531250000000         3.095598356409870E-012
   78.7668750000000         4.140938640043964E-012
   78.9806250000000         4.951716642282523E-012
   79.1943750000000         5.412478617343636E-012
   79.4081250000000         5.419690978460611E-012
   79.6218750000000         4.893266823257001E-012
   79.8356250000000         3.787839823190152E-012
   80.0493750000000         2.102694303745266E-012
   80.2631250000000        -1.107863024340423E-013
   80.4768750000000        -2.745235085125946E-012
   80.6906250000000        -5.637898449318461E-012
   80.9043750000000        -8.576355173431072E-012
   81.1181250000000        -1.130962147749621E-011
   81.3318750000000        -1.356444933265124E-011
   81.5456250000000        -1.506612124095702E-011
   81.7593750000000        -1.556253301128357E-011
   81.9731250000000        -1.484988492090910E-011
   82.1868750000000        -1.279791736365164E-011
   82.4006250000000        -9.372379101732561E-012
   82.6143750000000        -4.652344147828123E-012
   82.8281250000000         1.159874404510630E-012
   83.0418750000000         7.738113072262435E-012
   83.2556250000000         1.464238240640547E-011
   83.4693750000000         2.134010260858942E-011
   83.6831250000000         2.723822169903981E-011
   83.8968750000000         3.172489993092904E-011
   84.1106250000000         3.421844863855048E-011
   84.3243750000000         3.422029655732787E-011
   84.5381250000000         3.136800994122902E-011
   84.7518750000000         2.548389793431541E-011
   84.9656250000000         1.661456494903309E-011
   85.1793750000000         5.056975727761041E-012
   85.3931250000000        -8.632798879291248E-012
   85.6068750000000        -2.365099434415886E-011
   85.8206250000000        -3.897922055385313E-011
   86.0343750000000        -5.343906883851334E-011
   86.2481250000000        -6.576636032557325E-011
   86.4618750000000        -7.470132092593445E-011
   86.6756250000000        -7.908926206465875E-011
   86.8893750000000        -7.798490047690573E-011
   87.1031250000000        -7.075241101790159E-011
   87.3168750000000        -5.715279616575449E-011
   87.5306250000000        -3.741026714247494E-011
   87.7443750000000        -1.225011638561670E-011
   87.9581250000000         1.709798103839411E-011
   88.1718750000000         4.893522127664639E-011
   88.3856250000000         8.116887204284183E-011
   88.5993750000000         1.114258609662646E-010
   88.8131250000000         1.372000849744720E-010
   89.0268750000000         1.560257322297890E-010
   89.2406250000000         1.656661757397882E-010
   89.4543750000000         1.643058101020189E-010
   89.6681250000000         1.507307735994528E-010
   89.8818750000000         1.244839993636904E-010
   90.0956250000000         8.598058686487413E-011
   90.3093750000000         3.657112431665377E-011
   90.5231250000000        -2.145671002263490E-011
   90.7368750000000        -8.494429870943190E-011
   90.9506250000000        -1.499976281718749E-010
   91.1643750000000        -2.121889848136811E-010
   91.3781250000000        -2.668165151176113E-010
   91.5918750000000        -3.092084930011669E-010
   91.8056250000000        -3.350548157531113E-010
   92.0193750000000        -3.407448233191495E-010
   92.2331250000000        -3.236883148330134E-010
   92.4468750000000        -2.825958667046500E-010
   92.6606250000000        -2.176953975840557E-010
   92.8743750000000        -1.308644340888458E-010
   93.0881250000000        -2.566165218073226E-011
   93.3018750000000         9.275316712257738E-011
   93.5156250000000         2.178149033378008E-010
   93.7293750000000         3.418612085501892E-010
   93.9431250000000         4.565417496844970E-010
   94.1568750000000         5.533096974040170E-010
   94.3706250000000         6.239696095078046E-010
   94.5843750000000         6.612500966894149E-010
   94.7981250000000         6.593655688019531E-010
   95.0118750000000         6.145293216588724E-010
   95.2256250000000         5.253805065521344E-010
   95.4393750000000         3.932902628892542E-010
   95.6531250000000         2.225174757973040E-010
   95.8668750000000         2.019207232013130E-011
   96.0806250000000        -2.038868334857950E-010
   96.2943750000000        -4.376397653813817E-010
   96.5081250000000        -6.672727442556104E-010
   96.7218750000000        -8.779982915342868E-010
   96.9356250000000        -1.054878271121014E-009
   97.1493750000000        -1.183745137393945E-009
   97.3631250000000        -1.252150037172672E-009
   97.5768750000000        -1.250280740840612E-009
   97.7906250000000        -1.171790067797900E-009
   98.0043750000000        -1.014476679555185E-009
   98.2181250000000        -7.807650016426876E-010
   98.4318750000000        -4.779395489710908E-010
   98.6456250000000        -1.181007886048706E-010
   98.8593750000000         2.821756242130409E-010
   99.0731250000000         7.024775686777005E-010
   99.2868750000000         1.119476396958480E-009
   99.5006250000000         1.508093054010528E-009
   99.7143750000000         1.842857940888652E-009
   99.9281250000000         2.099396692903134E-009
   100.141875000000         2.255961741845200E-009
   100.355625000000         2.294921272615265E-009
   100.569375000000         2.204113736979410E-009
   100.783125000000         1.977977973030769E-009
   100.996875000000         1.618376420937961E-009
   101.210625000000         1.135041819363656E-009
   101.424375000000         5.455956622993869E-010
   101.638125000000        -1.248911951719459E-010
   101.851875000000        -8.448001669968504E-010
   102.065625000000        -1.577306195145352E-009
   102.279375000000        -2.282108813690927E-009
   102.493125000000        -2.917477390606930E-009
   102.706875000000        -3.442512164788044E-009
   102.920625000000        -3.819504523002430E-009
   103.134375000000        -4.016267693498477E-009
   103.348125000000        -4.008303690395418E-009
   103.561875000000        -3.780674566103925E-009
   103.775625000000        -3.329456019789736E-009
   103.989375000000        -2.662668903595441E-009
   104.203125000000        -1.800608434441230E-009
   104.416875000000        -7.755207904539060E-010
   104.630625000000         3.693892903071355E-010
   104.844375000000         1.581600110241820E-009
   105.058125000000         2.801507593479712E-009
   105.271875000000         3.965162027543309E-009
   105.485625000000         5.007385350648631E-009
   105.699375000000         5.865122178293894E-009
   105.913125000000         6.480859669753451E-009
   106.126875000000         6.805941447072156E-009
   106.340625000000         6.803599748824857E-009
   106.554375000000         6.451538000440121E-009
   106.768125000000         5.743912699022122E-009
   106.981875000000         4.692588176668957E-009
   107.195625000000         3.327569259276191E-009
   107.409375000000         1.696553596888914E-009
   107.623125000000        -1.364142042452103E-010
   107.836875000000        -2.093162407443991E-009
   108.050625000000        -4.084419695068856E-009
   108.264375000000        -6.013544155305170E-009
   108.478125000000        -7.780811002644934E-009
   108.691875000000        -9.288085063316671E-009
   108.905625000000        -1.044367924321332E-008
   109.119375000000        -1.116718289184819E-008
   109.333125000000        -1.139403499602558E-008
   109.546875000000        -1.107961705208454E-008
   109.760625000000        -1.020264960615267E-008
   109.974375000000        -8.767694907801278E-009
   110.188125000000        -6.806595741885374E-009
   110.401875000000        -4.378716872740513E-009
   110.615625000000        -1.569899953501772E-009
   110.829375000000         1.509905797919953E-009
   111.043125000000         4.730317752599518E-009
   111.256875000000         7.945418456277447E-009
   111.470625000000         1.099973552791856E-008
   111.684375000000         1.373509786254109E-008
   111.898125000000         1.599810497870373E-008
   112.111875000000         1.764789511626070E-008
   112.325625000000         1.856385668377499E-008
   112.539375000000         1.865290015663471E-008
   112.753125000000         1.785589656873273E-008
   112.966875000000         1.615289686605375E-008
   113.180625000000         1.356677540628575E-008
   113.394375000000         1.016499161814491E-008
   113.608125000000         6.059235906886701E-009
   113.821875000000         1.402817586979364E-009
   114.035625000000        -3.614239212626074E-009
   114.249375000000        -8.772305655758614E-009
   114.463125000000        -1.383125218213134E-008
   114.676875000000        -1.854120895599066E-008
   114.890625000000        -2.265452854271673E-008
   115.104375000000        -2.593839604899329E-008
   115.318125000000        -2.818745532907418E-008
   115.531875000000        -2.923577390069065E-008
   115.745625000000        -2.896745934520801E-008
   115.959375000000        -2.732526973471179E-008
   116.173125000000        -2.431663128994910E-008
   116.386875000000        -2.001658670883451E-008
   116.600625000000        -1.456734339621374E-008
   116.814375000000        -8.174265511789227E-009
   117.028125000000        -1.098348297583759E-009
   117.241875000000         6.354583414712788E-009
   117.455625000000         1.384751054505539E-008
   117.669375000000         2.102806308018470E-008
   117.883125000000         2.754579023032880E-008
   118.096875000000         3.306996096361011E-008
   118.310625000000         3.730693227445546E-008
   118.524375000000         4.001611193859150E-008
   118.738125000000         4.102359051589457E-008
   118.951875000000         4.023262325766627E-008
   119.165625000000         3.763030175030826E-008
   119.379375000000         3.328995925003930E-008
   119.593125000000         2.736909110994993E-008
   119.806875000000         2.010282823697417E-008
   120.020625000000         1.179326120127592E-008
   120.234375000000         2.795158862328807E-009
   120.448125000000        -6.501157932723648E-009
   120.661875000000        -1.568885436932898E-008
   120.875625000000        -2.436448138952845E-008
   121.089375000000        -3.214763439834447E-008
   121.303125000000        -3.869928366743039E-008
   121.516875000000        -4.373777220129333E-008
   121.730625000000        -4.705162236783817E-008
   121.944375000000        -4.850849118656962E-008
   122.158125000000        -4.805985269690572E-008
   122.371875000000        -4.574124838955322E-008
   122.585625000000        -4.166821569031874E-008
   122.799375000000        -3.602826191908965E-008
   123.013125000000        -2.906947984049683E-008
   123.226875000000        -2.108658580063804E-008
   123.440625000000        -1.240529060849307E-008
   123.654375000000        -3.365978908691370E-009
   123.868125000000         5.692328458837203E-009