  -1.60312500000000         4.708308705328233E-017
  -1.38937500000000         1.184807070596675E-012
  -1.17562500000000         6.558567578669810E-012
 -0.961875000000000         2.423010545272081E-011
 -0.748125000000000         6.683939182266833E-011
 -0.534375000000000         1.197486339691177E-010
 -0.320625000000000         1.066856492368142E-012
 -0.106875000000000        -1.011447541767983E-009
  0.106875000000000        -4.901115204138464E-009
  0.320625000000000        -1.593813646087661E-008
  0.534375000000000        -4.170903937383501E-008
  0.748125000000000        -9.385022894299448E-008
  0.961875000000000        -1.880737240672901E-007
   1.17562500000000        -3.434638001837515E-007
   1.38937500000000        -5.811013518617639E-007
   1.60312500000000        -9.220708572370456E-007
   1.81687500000000        -1.385128696251882E-006
   2.03062500000000        -1.984179593921074E-006
   2.24437500000000        -2.725794491351064E-006
   2.45812500000000        -3.603998896666227E-006
   2.67187500000000        -4.612855046314909E-006
   2.88562500000000        -5.720173993631247E-006
   3.09937500000000        -6.902900728358725E-006
   3.31312500000000        -8.107271123107913E-006
   3.52687500000000        -9.309100683193459E-006
   3.74062500000000        -1.044504639400462E-005
   3.95437500000000        -1.150176336105402E-005
   4.16812500000000        -1.244846672895460E-005
   4.38187500000000        -1.328163937337006E-005
   4.59562500000000        -1.401160386932253E-005
   4.80937500000000        -1.466865285980049E-005
   5.02312500000000        -1.529721289013452E-005
   5.23687500000000        -1.594935382400709E-005
   5.45062500000000        -1.668813158171924E-005
   5.66437500000000        -1.755293687932465E-005
   5.87812500000000        -1.860543996316033E-005
   6.09187500000000        -1.984036941983684E-005
   6.30562500000000        -2.127307294511734E-005
   6.51937500000000        -2.284283651965673E-005
   6.73312500000000        -2.451101048913846E-005
   6.94687500000000        -2.616345975011962E-005
   7.16062500000000        -2.772497572684333E-005
   7.37437500000000        -2.907176545968325E-005
   7.58812500000000        -3.011859517368808E-005
   7.80187500000000        -3.079122483802585E-005
   8.01562500000000        -3.104716278296076E-005
   8.22937500000000        -3.088731751827456E-005
   8.44312500000000        -3.035648156104261E-005
   8.65687500000000        -2.952932361616599E-005
   8.87062500000000        -2.851295036971386E-005
   9.08437500000000        -2.740000021844923E-005
   9.29812500000000        -2.631817998505351E-005
   9.51187500000000        -2.533512701157412E-005
   9.72562500000000        -2.452252890785445E-005
   9.93937500000000        -2.387031544055178E-005
   10.1531250000000        -2.336837884499866E-005
   10.3668750000000        -2.292143202937391E-005
   10.5806250000000        -2.245609393190068E-005
   10.7943750000000        -2.184672540294111E-005
   11.0081250000000        -2.102111234553890E-005
   11.2218750000000        -1.989518900639627E-005
   11.4356250000000        -1.846842884675148E-005
   11.6493750000000        -1.675550200031308E-005
   11.8631250000000        -1.484280788030503E-005
   12.0768750000000        -1.284754861577748E-005
   12.2906250000000        -1.090715638041773E-005
   12.5043750000000        -9.177080270812474E-006
   12.7181250000000        -7.762001246939212E-006
   12.9318750000000        -6.749701674610588E-006
   13.1456250000000        -6.164703875078064E-006
   13.3593750000000        -5.970816765637323E-006
   13.5731250000000        -6.076644239191696E-006
   13.7868750000000        -6.350390354757999E-006
   14.0006250000000        -6.639987910959903E-006
   14.2143750000000        -6.797197053757712E-006
   14.4281250000000        -6.698769143501278E-006
   14.6418750000000        -6.275195714567200E-006
   14.8556250000000        -5.509732805995319E-006
   15.0693750000000        -4.428990815648627E-006
   15.2831250000000        -3.127377166552800E-006
   15.4968750000000        -1.730481851222856E-006
   15.7106250000000        -3.800437470478024E-007
   15.9243750000000         7.877025605184896E-007
   16.1381250000000         1.664342833181321E-006
   16.3518750000000         2.176104783136107E-006
   16.5656250000000         2.299272398578997E-006
   16.7793750000000         2.050926407202381E-006
   16.9931250000000         1.493816186652293E-006
   17.2068750000000         7.187544342168861E-007
   17.4206250000000        -1.834550286769405E-007
   17.6343750000000        -1.149196723231632E-006
   17.8481250000000        -2.099461454683917E-006
   18.0618750000000        -3.025588902422986E-006
   18.2756250000000        -3.923520012351895E-006
   18.4893750000000        -4.832031287054923E-006
   18.7031250000000        -5.803465314117000E-006
   18.9168750000000        -6.900055993287426E-006
   19.1306250000000        -8.178993597462685E-006
   19.3443750000000        -9.680955984131784E-006
   19.5581250000000        -1.142114365899958E-005
   19.7718750000000        -1.338575045788393E-005
   19.9856250000000        -1.552998025454064E-005
   20.1993750000000        -1.778283558115235E-005
   20.4131250000000        -2.005268505560434E-005
   20.6268750000000        -2.223721547783417E-005
   20.8406250000000        -2.423114728306694E-005
   21.0543750000000        -2.593977934097263E-005
   21.2681250000000        -2.727485045604974E-005
   21.4818750000000        -2.818213659755132E-005
   21.6956250000000        -2.862921510628207E-005
   21.9093750000000        -2.862279811168259E-005
   22.1231250000000        -2.819917243762328E-005
   22.3368750000000        -2.742805229331211E-005
   22.5506250000000        -2.639914752957257E-005
   22.7643750000000        -2.522593863216251E-005
   22.9781250000000        -2.403289935834402E-005
   23.1918750000000        -2.294232732580101E-005
   23.4056250000000        -2.207460563999811E-005
   23.6193750000000        -2.151981633400131E-005
   23.8331250000000        -2.134129266139286E-005
   24.0468750000000        -2.156659570372379E-005
   24.2606250000000        -2.218640476993926E-005
   24.4743750000000        -2.315736391865532E-005
   24.6881250000000        -2.440266555802862E-005
   24.9018750000000        -2.585530873106701E-005
   25.1156250000000        -2.739662831650794E-005
   25.3293750000000        -2.895736307279565E-005
   25.5431250000000        -3.043146573145204E-005
   25.7568750000000        -3.175854252337186E-005
   25.9706250000000        -3.288039573221492E-005
   26.1843750000000        -3.374912869842215E-005
   26.3981250000000        -3.432724923289846E-005
   26.6118750000000        -3.457970137047242E-005
   26.8256250000000        -3.447045851236626E-005
   27.0393750000000        -3.396244918462577E-005
   27.2531250000000        -3.302775134393697E-005
   27.4668750000000        -3.161946968715229E-005
   27.6806250000000        -2.973038296859520E-005
   27.8943750000000        -2.737062380081296E-005
   28.1081250000000        -2.458437533120308E-005
   28.3218750000000        -2.145488359369109E-005
   28.5356250000000        -1.810181878992175E-005
   28.7493750000000        -1.467582895628050E-005
   28.9631250000000        -1.134669239108843E-005
   29.1768750000000        -8.286614350431084E-006
   29.3906250000000        -5.652526431704471E-006
   29.6043750000000        -3.568658162014595E-006
   29.8181250000000        -2.112230839334792E-006
   30.0318750000000        -1.311505723975605E-006
   30.2456250000000        -1.137979702991621E-006
   30.4593750000000        -1.523330746902378E-006
   30.6731250000000        -2.355550342095896E-006
   30.8868750000000        -3.503110614801501E-006
   31.1006250000000        -4.837214382319405E-006
   31.3143750000000        -6.236838560115804E-006
   31.5281250000000        -7.623760904400339E-006
   31.7418750000000        -8.914958554353942E-006
   31.9556250000000        -1.009340137944405E-005
   32.1693750000000        -1.112738475343498E-005
   32.3831250000000        -1.203627717413648E-005
   32.5968750000000        -1.281721628051232E-005
   32.8106250000000        -1.347973932970189E-005
   33.0243750000000        -1.403956625136472E-005
   33.2381250000000        -1.448780215025156E-005
   33.4518750000000        -1.482765002282719E-005
   33.6656250000000        -1.506306756373440E-005
   33.8793750000000        -1.520696570626411E-005
   34.0931250000000        -1.528729000123128E-005
   34.3068750000000        -1.534799831433643E-005
   34.5206250000000        -1.544367602438074E-005
   34.7343750000000        -1.563492640410220E-005
   34.9481250000000        -1.598067485368752E-005
   35.1618750000000        -1.652586646294598E-005
   35.3756250000000        -1.729223532687221E-005
   35.5893750000000        -1.826713266916981E-005
   35.8031250000000        -1.942567648500603E-005
   36.0168750000000        -2.068860262699874E-005
   36.2306250000000        -2.198973962737711E-005
   36.4443750000000        -2.322500930274911E-005
   36.6581250000000        -2.434124681996668E-005
   36.8718750000000        -2.526477798456819E-005
   37.0856250000000        -2.600530247760667E-005
   37.2993750000000        -2.656253491577241E-005
   37.5131250000000        -2.702306300739949E-005
   37.7268750000000        -2.746341557080164E-005
   37.9406250000000        -2.799576903378526E-005
   38.1543750000000        -2.872832229266428E-005
   38.3681250000000        -2.974940850773317E-005
   38.5818750000000        -3.111249212076184E-005
   38.7956250000000        -3.282333828144955E-005
   39.0093750000000        -3.483646362803270E-005
   39.2231250000000        -3.705166322605760E-005
   39.4368750000000        -3.934394247441800E-005
   39.6506250000000        -4.153667110616884E-005
   39.8643750000000        -4.345860675920322E-005
   40.0781250000000        -4.494537989227258E-005
   40.2918750000000        -4.586185375529392E-005
   40.5056250000000        -4.611541068180323E-005
   40.7193750000000        -4.566554427538369E-005
   40.9331250000000        -4.453088870330387E-005
   41.1468750000000        -4.278545404661958E-005
   41.3606250000000        -4.055709511128947E-005
   41.5743750000000        -3.799511486779608E-005
   41.7881250000000        -3.527205289067611E-005
   42.0018750000000        -3.256447885282863E-005
   42.2156250000000        -3.003587920305205E-005
   42.4293750000000        -2.782301080015946E-005
   42.6431250000000        -2.602462329247683E-005
   42.8568750000000        -2.469771288282308E-005
   43.0706250000000        -2.385558988519150E-005
   43.2843750000000        -2.346749504224284E-005
   43.4981250000000        -2.348850177959520E-005
   43.7118750000000        -2.382086767922211E-005
   43.9256250000000        -2.438109783891112E-005
   44.1393750000000        -2.507058265210616E-005
   44.3531250000000        -2.580010174228359E-005
   44.5668750000000        -2.649408906931065E-005
   44.7806250000000        -2.709331023059130E-005
   44.9943750000000        -2.755467288789803E-005
   45.2081250000000        -2.784835586500975E-005
   45.4218750000000        -2.795863948997666E-005
   45.6356250000000        -2.787263379547662E-005
   45.8493750000000        -2.758014138120837E-005
   46.0631250000000        -2.707033670357205E-005
   46.2768750000000        -2.633245125956367E-005
   46.4906250000000        -2.535865302330212E-005
   46.7043750000000        -2.414881690923425E-005
   46.9181250000000        -2.271641959982245E-005
   47.1318750000000        -2.109453230013817E-005
   47.3456250000000        -1.934002964866770E-005
   47.5593750000000        -1.753508295034727E-005
   47.7731250000000        -1.578503278487609E-005
   47.9868750000000        -1.421186537407890E-005
   48.2006250000000        -1.294469876732520E-005
   48.4143750000000        -1.210409417163693E-005
   48.6281250000000        -1.179593844530684E-005
   48.8418750000000        -1.208915429251598E-005
   49.0556250000000        -1.300984571522728E-005
   49.2693750000000        -1.453428417445249E-005
   49.4831250000000        -1.658178837701310E-005
   49.6968750000000        -1.905365517238811E-005
   49.9106250000000        -2.179567149023877E-005
   50.1243750000000        -2.464542944789784E-005
   50.3381250000000        -2.743957976278078E-005
   50.5518750000000        -3.003423086281565E-005
   50.7656250000000        -3.231884347616912E-005
   50.9793750000000        -3.423107383862224E-005
   51.1931250000000        -3.574937823042250E-005
   51.4068750000000        -3.690750064133736E-005
   51.6206250000000        -3.777899419548462E-005
   51.8343750000000        -3.846340935977240E-005
   52.0481250000000        -3.907005016883099E-005
   52.2618750000000        -3.970080218691470E-005
   52.4756250000000        -4.043142797840865E-005
   52.6893750000000        -4.130300201861092E-005
   52.9031250000000        -4.231959895828952E-005
   53.1168750000000        -4.344807444429235E-005
   53.3306250000000        -4.461486289532598E-005
   53.5443750000000        -4.573092501054469E-005
   53.7581250000000        -4.670293847801381E-005
   53.9718750000000        -4.745000188212515E-005
   54.1856250000000        -4.791116608876065E-005
   54.3993750000000        -4.807244136151015E-005
   54.6131250000000        -4.794634503911219E-005
   54.8268750000000        -4.759232029363872E-005
   55.0406250000000        -4.709300938131351E-005
   55.2543750000000        -4.654604593561237E-005
   55.4681250000000        -4.604630227003757E-005
   55.6818750000000        -4.567055546589812E-005
   55.8956250000000        -4.546462139489136E-005
   56.1093750000000        -4.543770624400638E-005
   56.3231250000000        -4.556256761579062E-005
   56.5368750000000        -4.578009016186364E-005
   56.7506250000000        -4.601689349988607E-005
   56.9643750000000        -4.618780475563806E-005
   57.1781250000000        -4.622631326354050E-005
   57.3918750000000        -4.609403970437023E-005
   57.6056250000000        -4.576427753922433E-005
   57.8193750000000        -4.528082288531506E-005
   58.0331250000000        -4.467157773056287E-005
   58.2468750000000        -4.402622471742829E-005
   58.4606250000000        -4.339051108409210E-005
   58.6743750000000        -4.284078304515812E-005
   58.8881250000000        -4.238009103619074E-005
   59.1018750000000        -4.202357479532351E-005
   59.3156250000000        -4.170729715530755E-005
   59.5293750000000        -4.136916018859816E-005
   59.7431250000000        -4.092255406247592E-005
   59.9568750000000        -4.026456678921720E-005
   60.1706250000000        -3.934029381496375E-005
   60.3843750000000        -3.810233050318875E-005
   60.5981250000000        -3.657978947495683E-005
   60.8118750000000        -3.481392909421396E-005
   61.0256250000000        -3.293269267613678E-005
   61.2393750000000        -3.105188069441002E-005
   61.4531250000000        -2.934322371625540E-005
   61.6668750000000        -2.793555868070682E-005
   61.8806250000000        -2.695754664257016E-005
   62.0943750000000        -2.648733406799822E-005
   62.3081250000000        -2.655413702182730E-005
   62.5218750000000        -2.713456131295507E-005
   62.7356250000000        -2.816025891521249E-005
   62.9493750000000        -2.952713899183407E-005
   63.1631250000000        -3.114100823132532E-005
   63.3768750000000        -3.286322157029513E-005
   63.5906250000000        -3.461568701967839E-005
   63.8043750000000        -3.629973794289644E-005
   64.0181250000000        -3.788521536045611E-005
   64.2318750000000        -3.933907574579960E-005
   64.4456250000000        -4.066187226481449E-005
   64.6593750000000        -4.186878795698075E-005
   64.8731250000000        -4.297916676935487E-005
   65.0868750000000        -4.401060822173154E-005
   65.3006250000000        -4.497441515172492E-005
   65.5143750000000        -4.587399938405599E-005
   65.7281250000000        -4.670665056781987E-005
   65.9418750000000        -4.746707536173323E-005
   66.1556250000000        -4.815227485291737E-005
   66.3693750000000        -4.876434888658494E-005
   66.5831250000000        -4.931465488273826E-005
   66.7968750000000        -4.982754601342873E-005
   67.0106250000000        -5.032576866115488E-005
   67.2243750000000        -5.084650858292218E-005
   67.4381250000000        -5.141547471816205E-005
   67.6518750000000        -5.205702529325867E-005
   67.8656250000000        -5.278574507690365E-005
   68.0793750000000        -5.360770912625566E-005
   68.2931250000000        -5.450870159452553E-005
   68.5068750000000        -5.547835025690106E-005
   68.7206250000000        -5.648692894982297E-005
   68.9343750000000        -5.750679045698572E-005
   69.1481250000000        -5.850845591599875E-005
   69.3618750000000        -5.946219096105949E-005
   69.5756250000000        -6.033128903251656E-005
   69.7893750000000        -6.108095118861343E-005
   70.0031250000000        -6.167436864340895E-005
   70.2168750000000        -6.207243313256287E-005
   70.4306250000000        -6.224919632262772E-005
   70.6443750000000        -6.217542897662300E-005
   70.8581250000000        -6.183813746314329E-005
   71.0718750000000        -6.124541959653646E-005
   71.2856250000000        -6.042404864110298E-005
   71.4993750000000        -5.942654935720355E-005
   71.7131250000000        -5.832182120469359E-005
   71.9268750000000        -5.720000174893812E-005
   72.1406250000000        -5.614139120918118E-005
   72.3543750000000        -5.523814247488886E-005
   72.5681250000000        -5.455428676426785E-005
   72.7818750000000        -5.412436980544476E-005
   72.9956250000000        -5.394762559332567E-005
   73.2093750000000        -5.398441822667744E-005
   73.4231250000000        -5.416097836751227E-005
   73.6368750000000        -5.437955824341160E-005
   73.8506250000000        -5.453259827142408E-005
   74.0643750000000        -5.451912768312477E-005
   74.2781250000000        -5.426055895887673E-005
   74.4918750000000        -5.371390760324671E-005
   74.7056250000000        -5.288712817776974E-005
   74.9193750000000        -5.180923556548412E-005
   75.1331250000000        -5.056939161404242E-005
   75.3468750000000        -4.927569689245548E-005
   75.5606250000000        -4.805288774210512E-005
   75.7743750000000        -4.702296641494823E-005
   75.9881250000000        -4.629147057760811E-005
   76.2018750000000        -4.593105359574191E-005
   76.4156250000000        -4.599953844359366E-005
   76.6293750000000        -4.649141609964225E-005
   76.8431250000000        -4.738585874658485E-005
   77.0568750000000        -4.862515049567028E-005
   77.2706250000000        -5.013797021733221E-005
   77.4843750000000        -5.183889868376487E-005
   77.6981250000000        -5.366712690354971E-005
   77.9118750000000        -5.552812582615399E-005
   78.1256250000000        -5.737087452278835E-005
   78.3393750000000        -5.912726742213665E-005
   78.5531250000000        -6.074394556287663E-005
   78.7668750000000        -6.217220206833655E-005
   78.9806250000000        -6.336608973538922E-005
   79.1943750000000        -6.428311648752170E-005
   79.4081250000000        -6.488689018477134E-005
   79.6218750000000        -6.515165318206959E-005
   79.8356250000000        -6.506730836751905E-005
   80.0493750000000        -6.464552177728619E-005
   80.2631250000000        -6.392306739877595E-005
   80.4768750000000        -6.296496806258049E-005
   80.6906250000000        -6.186411528120916E-005
   80.9043750000000        -6.073230720256254E-005
   81.1181250000000        -5.969346252411899E-005
   81.3318750000000        -5.887190511072447E-005
   81.5456250000000        -5.837987708565324E-005
   81.7593750000000        -5.830515505654270E-005
   81.9731250000000        -5.870067514408138E-005
   82.1868750000000        -5.958011562867240E-005
   82.4006250000000        -6.091051523156353E-005
   82.6143750000000        -6.263127910593918E-005
   82.8281250000000        -6.462659852916570E-005
   83.0418750000000        -6.678909929366829E-005
   83.2556250000000        -6.896822992027137E-005
   83.4693750000000        -7.105940676200490E-005
   83.6831250000000        -7.294045631600490E-005
   83.8968750000000        -7.453529687006678E-005
   84.1106250000000        -7.579906995226849E-005
   84.3243750000000        -7.672048246066060E-005
   84.5381250000000        -7.731783375436774E-005
   84.7518750000000        -7.763095037822154E-005
   84.9656250000000        -7.771103336293225E-005
   85.1793750000000        -7.760923939377617E-005
   85.3931250000000        -7.736719542636638E-005
   85.6068750000000        -7.700995699575781E-005
   85.8206250000000        -7.654355734234590E-005
   86.0343750000000        -7.595975458326356E-005
   86.2481250000000        -7.523609180440301E-005
   86.4618750000000        -7.435044846232502E-005
   86.6756250000000        -7.329176298530540E-005
   86.8893750000000        -7.207484518040433E-005
   87.1031250000000        -7.071668444054362E-005
   87.3168750000000        -6.930034269507509E-005
   87.5306250000000        -6.789264217844693E-005
   87.7443750000000        -6.661968413657772E-005
   87.9581250000000        -6.556257548102634E-005
   88.1718750000000        -6.483502325925754E-005
   88.3856250000000        -6.448115168426353E-005
   88.5993750000000        -6.453354589352488E-005
   88.8131250000000        -6.496476226001288E-005
   89.0268750000000        -6.570304978762485E-005
   89.2406250000000        -6.663695540419604E-005
   89.4543750000000        -6.763259188295990E-005
   89.6681250000000        -6.855222026850614E-005
   89.8818750000000        -6.927530505195486E-005
   90.0956250000000        -6.971731297333439E-005
   90.3093750000000        -6.983730592366306E-005
   90.5231250000000        -6.965302596260447E-005
   90.7368750000000        -6.922838781124900E-005
   90.9506250000000        -6.866958917428505E-005
   91.1643750000000        -6.809765273472752E-005
   91.3781250000000        -6.763620311045901E-005
   91.5918750000000        -6.738751951420524E-005
   91.8056250000000        -6.741693970221156E-005
   92.0193750000000        -6.774262117629161E-005
   92.2331250000000        -6.833515631696502E-005
   92.4468750000000        -6.912297914894228E-005
   92.6606250000000        -7.000733767908452E-005
   92.8743750000000        -7.088058506410587E-005
   93.0881250000000        -7.164559096244130E-005
   93.3018750000000        -7.223110506203799E-005
   93.5156250000000        -7.260901581544293E-005
   93.7293750000000        -7.279009314668123E-005
   93.9431250000000        -7.283384816063104E-005
   94.1568750000000        -7.282226445886064E-005
   94.3706250000000        -7.285654931370841E-005
   94.5843750000000        -7.304190981195228E-005
   94.7981250000000        -7.346321269735318E-005
   95.0118750000000        -7.417815556654456E-005
   95.2256250000000        -7.521025591066274E-005
   95.4393750000000        -7.654077018141393E-005
   95.6531250000000        -7.812859646559166E-005
   95.8668750000000        -7.989753727797184E-005
   96.0806250000000        -8.176155534714843E-005
   96.2943750000000        -8.363539378215179E-005
   96.5081250000000        -8.541805447475826E-005
   96.7218750000000        -8.705972050615476E-005
   96.9356250000000        -8.848993641229300E-005
   97.1493750000000        -8.967473696287667E-005
   97.3631250000000        -9.059166410884608E-005
   97.5768750000000        -9.123495616872154E-005
   97.7906250000000        -9.161045329932959E-005
   98.0043750000000        -9.173287653397416E-005
   98.2181250000000        -9.162719803214508E-005
   98.4318750000000        -9.132635496453766E-005
   98.6456250000000        -9.087197760060950E-005
   98.8593750000000        -9.031224572448590E-005
   99.0731250000000        -8.969962036552999E-005
   99.2868750000000        -8.908549512356913E-005
   99.5006250000000        -8.851566674058142E-005
   99.7143750000000        -8.802356761332872E-005
   99.9281250000000        -8.762498282183443E-005
   100.141875000000        -8.731560828640412E-005
   100.355625000000        -8.706957830083010E-005
   100.569375000000        -8.684572554886545E-005
   100.783125000000        -8.659453242640677E-005
   100.996875000000        -8.624656891006943E-005
   101.210625000000        -8.578039781530982E-005
   101.424375000000        -8.515187088397991E-005
   101.638125000000        -8.439036762901008E-005
   101.851875000000        -8.351432483566299E-005
   102.065625000000        -8.260093198467570E-005
   102.279375000000        -8.173503861797811E-005
   102.493125000000        -8.100793713580432E-005
   102.706875000000        -8.050205985804859E-005
   102.920625000000        -8.027515042368826E-005
   103.134375000000        -8.034648565755281E-005
   103.348125000000        -8.069398725893288E-005
   103.561875000000        -8.125705363644363E-005
   103.775625000000        -8.192099195302301E-005
   103.989375000000        -8.256317094622669E-005
   104.203125000000        -8.304838008842498E-005
   104.416875000000        -8.326721561699405E-005
   104.630625000000        -8.314266902875455E-005
   104.844375000000        -8.265597586502557E-005
   105.058125000000        -8.183775613619138E-005
   105.271875000000        -8.077847333378789E-005
   105.485625000000        -7.963252995379097E-005
   105.699375000000        -7.856600980276067E-005
   105.913125000000        -7.777754548784963E-005
   106.126875000000        -7.743260978608427E-005
   106.340625000000        -7.766202727482941E-005
   106.554375000000        -7.853823458999119E-005
   106.768125000000        -8.006202193887385E-005
   106.981875000000        -8.216952377700932E-005
   107.195625000000        -8.472676874232070E-005
   107.409375000000        -8.758492801744399E-005
   107.623125000000        -9.051895559778045E-005
   107.836875000000        -9.336321787724453E-005
   108.050625000000        -9.591343273173563E-005
   108.264375000000        -9.806567029826733E-005
   108.478125000000        -9.971149174817376E-005
   108.691875000000        -1.008479441777940E-004
   108.905625000000        -1.014837807761826E-004
   109.119375000000        -1.016914422032643E-004
   109.333125000000        -1.015646205037599E-004
   109.546875000000        -1.012018868771295E-004
   109.760625000000        -1.007017660731649E-004
   109.974375000000        -1.001460146636873E-004
   110.188125000000        -9.959423685736050E-005
   110.401875000000        -9.908259219392061E-005
   110.615625000000        -9.862727147866231E-005
   110.829375000000        -9.822997598241458E-005
   111.043125000000        -9.788820152769217E-005
   111.256875000000        -9.760257167568652E-005
   111.470625000000        -9.738071548396552E-005
   111.684375000000        -9.723895470029704E-005
   111.898125000000        -9.719886622128871E-005
   112.111875000000        -9.728213382839877E-005
   112.325625000000        -9.750307639254404E-005
   112.539375000000        -9.786197299987820E-005
   112.753125000000        -9.834082616091100E-005
   112.966875000000        -9.890170765389672E-005
   113.180625000000        -9.949119866182592E-005
   113.394375000000        -1.000474750787058E-004
   113.608125000000        -1.005103060675183E-004
   113.821875000000        -1.008318087264350E-004
   114.035625000000        -1.009857050080354E-004
   114.249375000000        -1.009728641576402E-004
   114.463125000000        -1.008216893577956E-004
   114.676875000000        -1.005834085385688E-004
   114.890625000000        -1.003228762558155E-004
   115.104375000000        -1.001056680026374E-004
   115.318125000000        -9.998421820329538E-005
   115.531875000000        -9.998692491126256E-005
   115.745625000000        -1.001114649649255E-004
   115.959375000000        -1.003246338865166E-004
   116.173125000000        -1.005674490619515E-004
   116.386875000000        -1.007673837484094E-004
   116.600625000000        -1.008534803222872E-004
   116.814375000000        -1.007777657720923E-004
   117.028125000000        -1.005001627595317E-004
   117.241875000000        -1.000529838740905E-004
   117.455625000000        -9.947347860172156E-005
   117.669375000000        -9.886542577999725E-005
   117.883125000000        -9.831916081989664E-005
   118.096875000000        -9.795228627816509E-005
   118.310625000000        -9.785358005161527E-005
   118.524375000000        -9.808490945506255E-005
   118.738125000000        -9.865848946683316E-005
   118.951875000000        -9.954253360866241E-005
   119.165625000000        -1.006645725400983E-004
   119.379375000000        -1.019244975037441E-004
   119.593125000000        -1.032127052476549E-004
   119.806875000000        -1.044295592536539E-004
   120.020625000000        -1.055018055279991E-004
   120.234375000000        -1.063886966452270E-004
   120.448125000000        -1.071137979866460E-004
   120.661875000000        -1.077049535509960E-004
   120.875625000000        -1.082340963244354E-004
   121.089375000000        -1.087746614113432E-004
   121.303125000000        -1.093855174349273E-004
   121.516875000000        -1.100963193043526E-004
   121.730625000000        -1.108943014318699E-004
   121.944375000000        -1.117249672626158E-004
   122.158125000000        -1.124980055981043E-004
   122.371875000000        -1.131027281610515E-004
   122.585625000000        -1.134296529250304E-004
   122.799375000000        -1.133928117139646E-004
   123.013125000000        -1.129513975762454E-004
   123.226875000000        -1.121220586081024E-004
   123.440625000000        -1.109852688674222E-004
   123.654375000000        -1.096771953799386E-004
   123.868125000000        -1.083759701148294E-004