  -1.60312500000000        -1.073158990245804E-020
  -1.38937500000000         1.627111837875212E-019
  -1.17562500000000         2.403170808838483E-018
 -0.961875000000000         1.726473304498946E-017
 -0.748125000000000         9.028238743169202E-017
 -0.534375000000000         3.845649490897442E-016
 -0.320625000000000         1.399448322915027E-015
 -0.106875000000000         4.458614528389194E-015
  0.106875000000000         1.263992451574588E-014
  0.320625000000000         3.228763597599189E-014
  0.534375000000000         7.510813869166363E-014
  0.748125000000000         1.606690204699985E-013
  0.961875000000000         3.189033070586282E-013
   1.17562500000000         5.921018819344582E-013
   1.38937500000000         1.035920608156268E-012
   1.60312500000000         1.719007075598207E-012
   1.81687500000000         2.721042941969101E-012
   2.03062500000000         4.129140560460593E-012
   2.24437500000000         6.032781166509845E-012
   2.45812500000000         8.517694420667160E-012
   2.67187500000000         1.165912678565286E-011
   2.88562500000000         1.551541395846147E-011
   3.09937500000000         2.012244053532537E-011
   3.31312500000000         2.548964662754702E-011
   3.52687500000000         3.159823434500134E-011
   3.74062500000000         3.840186622414040E-011
   3.95437500000000         4.583005009186219E-011
   4.16812500000000         5.379366042697198E-011
   4.38187500000000         6.219178537900051E-011
   4.59562500000000         7.091965652590627E-011
   4.80937500000000         7.987634342762619E-011
   5.02312500000000         8.897100443846107E-011
   5.23687500000000         9.812782536234565E-011
   5.45062500000000         1.072885852898837E-010
   5.66437500000000         1.164128548322831E-010
   5.87812500000000         1.254763502734628E-010
   6.09187500000000         1.344678499754917E-010
   6.30562500000000         1.433856846972488E-010
   6.51937500000000         1.522345727143184E-010
   6.73312500000000         1.610233513266758E-010
   6.94687500000000         1.697640472199410E-010
   7.16062500000000         1.784723638539270E-010
   7.37437500000000         1.871692894432595E-010
   7.58812500000000         1.958832039420767E-010
   7.80187500000000         2.046515346358384E-010
   8.01562500000000         2.135211400348742E-010
   8.22937500000000         2.225466986951512E-010
   8.44312500000000         2.317870930027743E-010
   8.65687500000000         2.412996303615189E-010
   8.87062500000000         2.511324654857360E-010
   9.08437500000000         2.613165397352534E-010
   9.29812500000000         2.718581129032276E-010
   9.51187500000000         2.827332542477272E-010
   9.72562500000000         2.938852167432308E-010
   9.93937500000000         3.052255048244930E-010
   10.1531250000000         3.166389145188958E-010
   10.3668750000000         3.279919722755862E-010
   10.5806250000000         3.391441588240556E-010
   10.7943750000000         3.499603984995696E-010
   11.0081250000000         3.603232319823691E-010
   11.2218750000000         3.701432572978720E-010
   11.4356250000000         3.793667695702869E-010
   11.6493750000000         3.879796053629877E-010
   11.8631250000000         3.960068578730716E-010
   12.0768750000000         4.035091449496225E-010
   12.2906250000000         4.105760601091387E-010
   12.5043750000000         4.173179491727759E-010
   12.7181250000000         4.238569128793703E-010
   12.9318750000000         4.303185248394051E-010
   13.1456250000000         4.368249105257413E-010
   13.3593750000000         4.434894811794117E-010
   13.5731250000000         4.504135597739257E-010
   13.7868750000000         4.576842204782920E-010
   14.0006250000000         4.653731720675266E-010
   14.2143750000000         4.735357072958528E-010
   14.4281250000000         4.822096584209956E-010
   14.6418750000000         4.914141674169410E-010
   14.8556250000000         5.011480956047175E-010
   15.0693750000000         5.113889227369432E-010
   15.2831250000000         5.220924264887464E-010
   15.4968750000000         5.331940584618773E-010
   15.7106250000000         5.446124672006549E-010
   15.9243750000000         5.562555414309871E-010
   16.1381250000000         5.680285397938611E-010
   16.3518750000000         5.798433802821411E-010
   16.5656250000000         5.916286991477577E-010
   16.7793750000000         6.033390894092338E-010
   16.9931250000000         6.149617875287042E-010
   17.2068750000000         6.265200494596610E-010
   17.4206250000000         6.380724943363767E-010
   17.6343750000000         6.497076901024278E-010
   17.8481250000000         6.615351114282304E-010
   18.0618750000000         6.736732378713931E-010
   18.2756250000000         6.862361033183784E-010
   18.4893750000000         6.993203633076419E-010
   18.7031250000000         7.129943496543814E-010
   18.9168750000000         7.272907330129254E-010
   19.1306250000000         7.422037855637378E-010
   19.3443750000000         7.576914103566865E-010
   19.5581250000000         7.736817147114160E-010
   19.7718750000000         7.900832961185599E-010
   19.9856250000000         8.067976683021288E-010
   20.1993750000000         8.237319122734758E-010
   20.4131250000000         8.408103678380476E-010
   20.6268750000000         8.579838149624031E-010
   20.8406250000000         8.752348436119388E-010
   21.0543750000000         8.925793355699730E-010
   21.2681250000000         9.100637515711504E-010
   21.4818750000000         9.277593154138489E-010
   21.6956250000000         9.457536176841197E-010
   21.9093750000000         9.641410443610310E-010
   22.1231250000000         9.830134700571992E-010
   22.3368750000000         1.002451819724696E-009
   22.5506250000000         1.022519822947135E-009
   22.7643750000000         1.043260137343431E-009
   22.9781250000000         1.064693125547829E-009
   23.1918750000000         1.086817921272679E-009
   23.4056250000000         1.109615235398594E-009
   23.6193750000000         1.133051391444359E-009
   23.8331250000000         1.157082933020145E-009
   24.0468750000000         1.181660730710283E-009
   24.2606250000000         1.206733406751396E-009
   24.4743750000000         1.232249784544784E-009
   24.6881250000000         1.258160066501216E-009
   24.9018750000000         1.284416122374299E-009
   25.1156250000000         1.310970721867478E-009
   25.3293750000000         1.337776358016088E-009
   25.5431250000000         1.364784549549857E-009
   25.7568750000000         1.391945428500472E-009
   25.9706250000000         1.419208044526314E-009
   26.1843750000000         1.446521827254944E-009
   26.3981250000000         1.473839095961321E-009
   26.6118750000000         1.501118610489781E-009
   26.8256250000000         1.528329494958606E-009
   27.0393750000000         1.555455400773468E-009
   27.2531250000000         1.582498186143942E-009
   27.4668750000000         1.609480213409947E-009
   27.6806250000000         1.636445275948668E-009
   27.8943750000000         1.663457731573569E-009
   28.1081250000000         1.690599289857275E-009
   28.3218750000000         1.717963537605109E-009
   28.5356250000000         1.745649010312591E-009
   28.7493750000000         1.773750992047849E-009
   28.9631250000000         1.802352946182179E-009
   29.1768750000000         1.831518686927519E-009
   29.3906250000000         1.861285823242712E-009
   29.6043750000000         1.891661429541744E-009
   29.8181250000000         1.922620722469960E-009
   30.0318750000000         1.954108679122590E-009
   30.2456250000000         1.986044585709587E-009
   30.4593750000000         2.018329143590782E-009
   30.6731250000000         2.050853198357209E-009
   30.8868750000000         2.083507240974438E-009
   31.1006250000000         2.116190357422948E-009
   31.3143750000000         2.148818003855590E-009
   31.5281250000000         2.181327473356816E-009
   31.7418750000000         2.213680531911213E-009
   31.9556250000000         2.245863547210773E-009
   32.1693750000000         2.277884954686287E-009
   32.3831250000000         2.309770997069601E-009
   32.5968750000000         2.341560716357992E-009
   32.8106250000000         2.373300876235718E-009
   33.0243750000000         2.405042047319498E-009
   33.2381250000000         2.436836314318860E-009
   33.4518750000000         2.468736809004029E-009
   33.6656250000000         2.500799078778784E-009
   33.8793750000000         2.533083779842028E-009
   34.0931250000000         2.565659587920890E-009
   34.3068750000000         2.598605501744423E-009
   34.5206250000000         2.632011672096038E-009
   34.7343750000000         2.665978010314970E-009
   34.9481250000000         2.700610409517540E-009
   35.1618750000000         2.736014687054532E-009
   35.3756250000000         2.772289189628617E-009
   35.5893750000000         2.809517249067631E-009
   35.8031250000000         2.847760588593833E-009
   36.0168750000000         2.887055079331058E-009
   36.2306250000000         2.927409944048652E-009
   36.4443750000000         2.968810582724196E-009
   36.6581250000000         3.011224910122602E-009
   36.8718750000000         3.054612254171151E-009
   37.0856250000000         3.098933476586076E-009
   37.2993750000000         3.144160380707364E-009
   37.5131250000000         3.190282691670579E-009
   37.7268750000000         3.237311080621062E-009
   37.9406250000000         3.285275405569015E-009
   38.1543750000000         3.334218331609824E-009
   38.3681250000000         3.384185179769682E-009
   38.5818750000000         3.435211456916231E-009
   38.7956250000000         3.487310244237740E-009
   39.0093750000000         3.540462144409233E-009
   39.2231250000000         3.594609324694951E-009
   39.4368750000000         3.649655444203672E-009
   39.6506250000000         3.705471504289962E-009
   39.8643750000000         3.761907336544596E-009
   40.0781250000000         3.818806891952594E-009
   40.2918750000000         3.876024867949899E-009
   40.5056250000000         3.933442485798382E-009
   40.7193750000000         3.990979280953044E-009
   40.9331250000000         4.048599114476605E-009
   41.1468750000000         4.106309810726073E-009
   41.3606250000000         4.164156403722405E-009
   41.5743750000000         4.222209190925482E-009
   41.7881250000000         4.280549059722866E-009
   42.0018750000000         4.339252627634707E-009
   42.2156250000000         4.398379958339907E-009
   42.4293750000000         4.457966940598222E-009
   42.6431250000000         4.518023632734216E-009
   42.8568750000000         4.578538416429854E-009
   43.0706250000000         4.639486746899168E-009
   43.2843750000000         4.700842528506285E-009
   43.4981250000000         4.762589402433662E-009
   43.7118750000000         4.824729080363739E-009
   43.9256250000000         4.887284719379876E-009
   44.1393750000000         4.950297923895488E-009
   44.3531250000000         5.013819754558280E-009
   44.5668750000000         5.077897002673522E-009
   44.7806250000000         5.142555821955600E-009
   44.9943750000000         5.207786399793318E-009
   45.2081250000000         5.273531573106675E-009
   45.4218750000000         5.339682018843562E-009
   45.6356250000000         5.406079889765473E-009
   45.8493750000000         5.472530942376870E-009
   46.0631250000000         5.538823999792853E-009
   46.2768750000000         5.604755518279262E-009
   46.4906250000000         5.670155609377247E-009
   46.7043750000000         5.734911577515344E-009
   46.9181250000000         5.798985574192094E-009
   47.1318750000000         5.862423765559427E-009
   47.3456250000000         5.925355515935258E-009
   47.5593750000000         5.987982727459801E-009
   47.7731250000000         6.050561014863092E-009
   47.9868750000000         6.113375385361298E-009
   48.2006250000000         6.176714261198502E-009
   48.4143750000000         6.240845334477018E-009
   48.6281250000000         6.305996355098008E-009
   48.8418750000000         6.372343305803977E-009
   49.0556250000000         6.440006699890548E-009
   49.2693750000000         6.509056025411800E-009
   49.4831250000000         6.579520268092517E-009
   49.6968750000000         6.651402052723237E-009
   49.9106250000000         6.724692714531621E-009
   50.1243750000000         6.799385261007724E-009
   50.3381250000000         6.875483144299511E-009
   50.5518750000000         6.953003429307395E-009
   50.7656250000000         7.031974285395605E-009
   50.9793750000000         7.112427648586616E-009
   51.1931250000000         7.194388965950907E-009
   51.4068750000000         7.277866172428256E-009
   51.6206250000000         7.362840384442680E-009
   51.8343750000000         7.449260351798041E-009
   52.0481250000000         7.537042020158848E-009
   52.2618750000000         7.626073423098516E-009
   52.4756250000000         7.716224482406449E-009
   52.6893750000000         7.807360552915645E-009
   52.9031250000000         7.899357247113572E-009
   53.1168750000000         7.992114402510096E-009
   53.3306250000000         8.085566988234995E-009
   53.5443750000000         8.179691180293534E-009
   53.7581250000000         8.274504800143789E-009
   53.9718750000000         8.370062257379052E-009
   54.1856250000000         8.466443943445306E-009
   54.3993750000000         8.563742197928800E-009
   54.6131250000000         8.662046000238850E-009
   54.8268750000000         8.761425866691505E-009
   55.0406250000000         8.861921427090375E-009
   55.2543750000000         8.963533104612283E-009
   55.4681250000000         9.066218840305537E-009
   55.6818750000000         9.169896113548468E-009
   55.8956250000000         9.274448615390474E-009
   56.1093750000000         9.379736597970276E-009
   56.3231250000000         9.485609597192725E-009
   56.5368750000000         9.591919600871608E-009
   56.7506250000000         9.698533161630681E-009
   56.9643750000000         9.805341426142726E-009
   57.1781250000000         9.912266901448736E-009
   57.3918750000000         1.001926660704909E-008
   57.6056250000000         1.012633160697501E-008
   57.8193750000000         1.023348328254384E-008
   58.0331250000000         1.034076727131144E-008
   58.2468750000000         1.044824519818232E-008
   58.4606250000000         1.055598512688297E-008
   58.6743750000000         1.066405195678988E-008
   58.8881250000000         1.077249806951173E-008
   59.1018750000000         1.088135448816168E-008
   59.3156250000000         1.099062380625345E-008
   59.5293750000000         1.110027495749193E-008
   59.7431250000000         1.121024044337768E-008
   59.9568750000000         1.132041701723730E-008
   60.1706250000000         1.143067022519893E-008
   60.3843750000000         1.154084355647638E-008
   60.5981250000000         1.165077187320453E-008
   60.8118750000000         1.176029964645231E-008
   61.0256250000000         1.186930286540249E-008
   61.2393750000000         1.197771293934340E-008
   61.4531250000000         1.208554160385482E-008
   61.6668750000000         1.219290309256727E-008
   61.8806250000000         1.230003103969556E-008
   62.0943750000000         1.240728709171779E-008
   62.3081250000000         1.251515795343680E-008
   62.5218750000000         1.262423895293193E-008
   62.7356250000000         1.273520240892926E-008
   62.9493750000000         1.284875170728152E-008
   63.1631250000000         1.296556267347569E-008
   63.3768750000000         1.308621566555627E-008
   63.5906250000000         1.321112455873172E-008
   63.8043750000000         1.334046971906812E-008
   64.0181250000000         1.347414300042350E-008
   64.2318750000000         1.361171317828159E-008
   64.4456250000000         1.375241996231957E-008
   64.6593750000000         1.389520276649151E-008
   64.8731250000000         1.403876756894848E-008
   65.0868750000000         1.418169181108708E-008
   65.3006250000000         1.432256240112888E-008
   65.5143750000000         1.446013730424416E-008
   65.7281250000000         1.459351635107314E-008
   65.9418750000000         1.472230288219990E-008
   66.1556250000000         1.484673549874908E-008
   66.3693750000000         1.496776861027523E-008
   66.5831250000000         1.508708267597301E-008
   66.7968750000000         1.520700961579583E-008
   67.0106250000000         1.533036726614256E-008
   67.2243750000000         1.546020631077650E-008
   67.4381250000000         1.559948430675464E-008
   67.6518750000000         1.575069378433305E-008
   67.8656250000000         1.591548181230534E-008
   68.0793750000000         1.609430646724762E-008
   68.2931250000000         1.628617829693162E-008
   68.5068750000000         1.648853350453812E-008
   68.7206250000000         1.669727715288167E-008
   68.9343750000000         1.690701969241013E-008
   69.1481250000000         1.711151032242344E-008
   69.3618750000000         1.730424599872237E-008
   69.5756250000000         1.747921054356557E-008
   69.7893750000000         1.763167385780709E-008
   70.0031250000000         1.775896208682713E-008
   70.2168750000000         1.786109989678981E-008
   70.4306250000000         1.794122507870644E-008
   70.6443750000000         1.800568842368963E-008
   70.8581250000000         1.806377731900232E-008
   71.0718750000000         1.812703770892083E-008
   71.2856250000000         1.820821515203833E-008
   71.4993750000000         1.831988554700742E-008
   71.7131250000000         1.847289478727061E-008
   71.9268750000000         1.867476867048470E-008
   72.1406250000000         1.892828202999881E-008
   72.3543750000000         1.923038623623278E-008
   72.5681250000000         1.957168005064422E-008
   72.7818750000000         1.993657179536359E-008
   72.9956250000000         2.030421905705888E-008
   73.2093750000000         2.065025165206935E-008
   73.4231250000000         2.094919088712891E-008
   73.6368750000000         2.117738064916705E-008
   73.8506250000000         2.131615791309650E-008
   74.0643750000000         2.135492002123661E-008
   74.2781250000000         2.129370693623035E-008
   74.4918750000000         2.114491626136739E-008
   74.7056250000000         2.093381336543637E-008
   74.9193750000000         2.069758893887041E-008
   75.1331250000000         2.048284928103199E-008
   75.3468750000000         2.034158977300252E-008
   75.5606250000000         2.032588462826676E-008
   75.7743750000000         2.048171101954235E-008
   75.9881250000000         2.084248783714750E-008
   76.2018750000000         2.142302971685570E-008
   76.4156250000000         2.221467667912643E-008
   76.6293750000000         2.318234068074429E-008
   76.8431250000000         2.426410679286126E-008
   77.0568750000000         2.537383560265973E-008
   77.2706250000000         2.640694568040905E-008
   77.4843750000000         2.724922807059217E-008
   77.6981250000000         2.778818586810694E-008
   77.9118750000000         2.792603797468636E-008
   78.1256250000000         2.759321323530967E-008
   78.3393750000000         2.676093096383518E-008
   78.5531250000000         2.545135186051172E-008
   78.7668750000000         2.374381741230476E-008
   78.9806250000000         2.177589386927550E-008
   79.1943750000000         1.973829893605633E-008
   79.4081250000000         1.786330201275938E-008
   79.6218750000000         1.640681624300613E-008
   79.8356250000000         1.562509689518747E-008
   80.0493750000000         1.574765989141849E-008
   80.2631250000000         1.694866549956491E-008
   80.4768750000000         1.931950310416896E-008
   80.6906250000000         2.284559152951401E-008
   80.9043750000000         2.739042045898797E-008
   81.1181250000000         3.268956152552210E-008
   81.3318750000000         3.835676505996638E-008
   81.5456250000000         4.390334628441881E-008
   81.7593750000000         4.877090156193700E-008
   81.9731250000000         5.237606839584933E-008
   82.1868750000000         5.416465800686214E-008
   82.4006250000000         5.367117664303119E-008
   82.6143750000000         5.057865157115570E-008
   82.8281250000000         4.477292552821448E-008
   83.0418750000000         3.638530080590016E-008
   83.2556250000000         2.581769112549125E-008
   83.4693750000000         1.374532217245781E-008
   83.6831250000000         1.093507396718705E-009
   83.8968750000000        -1.101295101041517E-008
   84.1106250000000        -2.132675336441704E-008
   84.3243750000000        -2.857783553844924E-008
   84.5381250000000        -3.158952482165118E-008
   84.7518750000000        -2.940238235585891E-008
   84.9656250000000        -2.139509250459699E-008
   85.1793750000000        -7.390625860071543E-009
   85.3931250000000         1.226426187964383E-008
   85.6068750000000         3.665718542003401E-008
   85.8206250000000         6.431482347136946E-008
   86.0343750000000         9.325982222064416E-008
   86.2481250000000         1.211214307905800E-007
   86.4618750000000         1.452965862343288E-007
   86.6756250000000         1.631530741273396E-007
   86.8893750000000         1.722614677846708E-007
   87.1031250000000         1.706382722763083E-007
   87.3168750000000         1.569795496525095E-007
   87.5306250000000         1.308627087470482E-007
   87.7443750000000         9.289443198416090E-008
   87.9581250000000         4.478507026696296E-008
   88.1718750000000        -1.066572568046259E-008
   88.3856250000000        -6.968103557349813E-008
   88.5993750000000        -1.277174187393488E-007
   88.8131250000000        -1.797666580470896E-007
   89.0268750000000        -2.207317676923832E-007
   89.2406250000000        -2.458521189484703E-007
   89.4543750000000        -2.511455472972088E-007
   89.6681250000000        -2.338305279988884E-007
   89.8818750000000        -1.926896010142767E-007
   90.0956250000000        -1.283366367686275E-007
   90.3093750000000        -4.335544372625915E-008
   90.5231250000000         5.771450736153739E-008
   90.7368750000000         1.685582834762805E-007
   90.9506250000000         2.814313300947598E-007
   91.1643750000000         3.876562370514260E-007
   91.3781250000000         4.782413909637979E-007
   91.5918750000000         5.445795718640960E-007
   91.8056250000000         5.791743415835359E-007
   92.0193750000000         5.763356759762328E-007
   92.2331250000000         5.327845654936552E-007
   92.4468750000000         4.481097257657002E-007
   92.6606250000000         3.250281597022151E-007
   92.8743750000000         1.694146590005727E-007
   93.0881250000000        -9.917475869952333E-009
   93.3018750000000        -2.016824889530797E-007
   93.5156250000000        -3.928123299423176E-007
   93.7293750000000        -5.693284574186395E-007
   93.9431250000000        -7.173356671810897E-007
   94.1568750000000        -8.240654629350579E-007
   94.3706250000000        -8.788892178828056E-007
   94.5843750000000        -8.742205625077139E-007
   94.7981250000000        -8.062323759068345E-007
   95.0118750000000        -6.753261391298970E-007
   95.2256250000000        -4.863093270001711E-007
   95.4393750000000        -2.482585306748838E-007
   95.6531250000000         2.592973383193032E-008
   95.8668750000000         3.202741441686672E-007
   96.0806250000000         6.166807643617411E-007
   96.2943750000000         8.960849287776301E-007
   96.5081250000000         1.139682445820357E-006
   96.7218750000000         1.330163408262912E-006
   96.9356250000000         1.452862668103357E-006
   97.1493750000000         1.496748706932663E-006
   97.3631250000000         1.455186353408928E-006
   97.5768750000000         1.326427139720156E-006
   97.7906250000000         1.113802211666015E-006
   98.0043750000000         8.256145652181967E-007
   98.2181250000000         4.747479353393291E-007
   98.4318750000000         7.802709880679408E-008
   98.6456250000000        -3.446227155244383E-007
   98.8593750000000        -7.711619927191745E-007
   99.0731250000000        -1.178511197345446E-006
   99.2868750000000        -1.543658455582114E-006
   99.5006250000000        -1.844752628305065E-006
   99.7143750000000        -2.062142746486852E-006
   99.9281250000000        -2.179334373413523E-006
   100.141875000000        -2.183841923758094E-006
   100.355625000000        -2.067921857161851E-006
   100.569375000000        -1.829174016544717E-006
   100.783125000000        -1.470996896189235E-006
   100.996875000000        -1.002877760570508E-006
   101.210625000000        -4.404914764740914E-007
   101.424375000000         1.944255200329457E-007
   101.638125000000         8.744652929066424E-007
   101.851875000000         1.567243074862098E-006
   102.065625000000         2.236432142397142E-006
   102.279375000000         2.843161607789988E-006
   102.493125000000         3.347778281264788E-006
   102.706875000000         3.711943921999564E-006
   102.920625000000         3.901002711120982E-006
   103.134375000000         3.886513496972336E-006
   103.348125000000         3.648801202790785E-006
   103.561875000000         3.179346429106430E-006
   103.775625000000         2.482806720414133E-006
   103.989375000000         1.578451974248430E-006
   104.203125000000         5.008040368705788E-007
   104.416875000000        -7.007007169983219E-007
   104.630625000000        -1.963156277987004E-006
   104.844375000000        -3.212798452121754E-006
   105.058125000000        -4.368753614443842E-006
   105.271875000000        -5.347796110534493E-006
   105.485625000000        -6.069882973438839E-006
   105.699375000000        -6.464137806492737E-006
   105.913125000000        -6.474874451390883E-006
   106.126875000000        -6.067194841187240E-006
   106.340625000000        -5.231672409581887E-006
   106.554375000000        -3.987648600297162E-006
   106.768125000000        -2.384728442562484E-006
   106.981875000000        -5.021613304440660E-007
   107.195625000000         1.554069274979619E-006
   107.409375000000         3.656456646829558E-006
   107.623125000000         5.663306928436597E-006
   107.836875000000         7.427837266306862E-006
   108.050625000000         8.808496603937786E-006
   108.264375000000         9.679822006446941E-006
   108.478125000000         9.943038718134655E-006
   108.691875000000         9.535563003964303E-006
   108.905625000000         8.438581791296742E-006
   109.119375000000         6.681965991625892E-006
   109.333125000000         4.345923449657287E-006
   109.546875000000         1.559005372910711E-006
   109.760625000000        -1.507665937579117E-006
   109.974375000000        -4.649797617183761E-006
   110.188125000000        -7.642514166075336E-006
   110.401875000000        -1.025541639461745E-005
   110.615625000000        -1.226915717546527E-005
   110.829375000000        -1.349240062424321E-005
   111.043125000000        -1.377792817105482E-005
   111.256875000000        -1.303663999301518E-005
   111.470625000000        -1.124827920869662E-005
   111.684375000000        -8.467877745002782E-006
   111.898125000000        -4.827178279932432E-006
   112.111875000000        -5.306107354700839E-007
   112.325625000000         4.154226774384998E-006
   112.539375000000         8.911239378266161E-006
   112.753125000000         1.339492901006053E-005
   112.966875000000         1.725282729643809E-005
   113.180625000000         2.014989357797197E-005
   113.394375000000         2.179329649878864E-005
   113.608125000000         2.195589159074513E-005
   113.821875000000         2.049671315823352E-005
   114.035625000000         1.737691943652855E-005
   114.249375000000         1.266986047314282E-005
   114.463125000000         6.564265950226285E-006
   114.676875000000        -6.400439619245419E-007
   114.890625000000        -8.544062207862246E-006
   115.104375000000        -1.666876567818813E-005
   115.318125000000        -2.448072613287827E-005
   115.531875000000        -3.142288900848627E-005
   115.745625000000        -3.694886576547333E-005
   115.959375000000        -4.055879073974617E-005
   116.173125000000        -4.183460575282718E-005
   116.386875000000        -4.047256854792458E-005
   116.600625000000        -3.631084133231012E-005
   116.814375000000        -2.935020326778879E-005
   117.028125000000        -1.976623876281317E-005
   117.241875000000        -7.911768520001407E-006
   117.455625000000         5.691206659267698E-006
   117.669375000000         2.037021237501711E-005
   117.883125000000         3.533121759893265E-005
   118.096875000000         4.969671404446350E-005
   118.310625000000         6.255132834539260E-005
   118.524375000000         7.299281476828913E-005
   118.738125000000         8.018584314160562E-005
   118.951875000000         8.341568129747361E-005
   119.165625000000         8.213869736419306E-005
   119.379375000000         7.602659281438225E-005
   119.593125000000         6.500143333437334E-005
   119.806875000000         4.925887420222163E-005
   120.020625000000         2.927747369471638E-005
   120.234375000000         5.812636182023421E-006
   120.448125000000        -2.012549962250327E-005
   120.661875000000        -4.731004717633576E-005
   120.875625000000        -7.435014084086950E-005
   121.089375000000        -9.975648324965139E-005
   121.303125000000        -1.220168112857392E-004
   121.516875000000        -1.396776729119558E-004
   121.730625000000        -1.514283198050444E-004
   121.944375000000        -1.561821396889173E-004
   122.158125000000        -1.531509138383546E-004
   122.371875000000        -1.419073132910390E-004
   122.585625000000        -1.224314506506138E-004
   122.799375000000        -9.513797501285170E-005
   123.013125000000        -6.088111017596584E-005
   123.226875000000        -2.093614880060499E-005
   123.440625000000         2.304282949387323E-005
   123.654375000000         6.908791896776150E-005
   123.868125000000         1.150026043534771E-004