  -1.60312500000000         2.920021012165829E-023
  -1.38937500000000         2.713822374505246E-023
  -1.17562500000000         2.395035847955525E-023
 -0.961875000000000         8.210691579101621E-024
 -0.748125000000000        -1.161511936343095E-022
 -0.534375000000000        -8.484688603892461E-022
 -0.320625000000000        -4.240994573416336E-021
 -0.106875000000000        -1.754848676949167E-020
  0.106875000000000        -6.127276423232261E-020
  0.320625000000000        -1.887186482861462E-019
  0.534375000000000        -5.205365341681330E-019
  0.748125000000000        -1.298766729672875E-018
  0.961875000000000        -2.966504030706066E-018
   1.17562500000000        -6.276492093575922E-018
   1.38937500000000        -1.240180122925689E-017
   1.60312500000000        -2.304266313662188E-017
   1.81687500000000        -4.053439224434893E-017
   2.03062500000000        -6.798364978750812E-017
   2.24437500000000        -1.091856423216438E-016
   2.45812500000000        -1.687030928220788E-016
   2.67187500000000        -2.518387833051153E-016
   2.88562500000000        -3.644226314030682E-016
   3.09937500000000        -5.126156053098199E-016
   3.31312500000000        -7.031060818330647E-016
   3.52687500000000        -9.427221285462639E-016
   3.74062500000000        -1.238295011690197E-015
   3.95437500000000        -1.596630504731951E-015
   4.16812500000000        -2.024073094906554E-015
   4.38187500000000        -2.526619321444468E-015
   4.59562500000000        -3.109166301895063E-015
   4.80937500000000        -3.775294303911778E-015
   5.02312500000000        -4.526680926309525E-015
   5.23687500000000        -5.362573637550895E-015
   5.45062500000000        -6.279667991794495E-015
   5.66437500000000        -7.271926106671676E-015
   5.87812500000000        -8.330989971869541E-015
   6.09187500000000        -9.447023432953804E-015
   6.30562500000000        -1.060961653486751E-014
   6.51937500000000        -1.180916486418008E-014
   6.73312500000000        -1.303848461324744E-014
   6.94687500000000        -1.429388647342425E-014
   7.16062500000000        -1.557649633359910E-014
   7.37437500000000        -1.689256564952791E-014
   7.58812500000000        -1.825291428890514E-014
   7.80187500000000        -1.967185708598653E-014
   8.01562500000000        -2.116549281360583E-014
   8.22937500000000        -2.274923280015795E-014
   8.44312500000000        -2.443537191667553E-014
   8.65687500000000        -2.623072725608299E-014
   8.87062500000000        -2.813513909051467E-014
   9.08437500000000        -3.014102038963910E-014
   9.29812500000000        -3.223359682025682E-014
   9.51187500000000        -3.439308356682060E-014
   9.72562500000000        -3.659817302389223E-014
   9.93937500000000        -3.882966535792667E-014
   10.1531250000000        -4.107458795984353E-014
   10.3668750000000        -4.332988563124709E-014
   10.5806250000000        -4.560496912061366E-014
   10.7943750000000        -4.792223205459109E-014
   11.0081250000000        -5.031595449998439E-014
   11.2218750000000        -5.282901695205393E-014
   11.4356250000000        -5.550756696602753E-014
   11.6493750000000        -5.839511276107617E-014
   11.8631250000000        -6.152596611746719E-014
   12.0768750000000        -6.491941375699012E-014
   12.2906250000000        -6.857513630276834E-014
   12.5043750000000        -7.247137934907978E-014
   12.7181250000000        -7.656540276381585E-014
   12.9318750000000        -8.079681752906997E-014
   13.1456250000000        -8.509340584306953E-014
   13.3593750000000        -8.937858255961277E-014
   13.5731250000000        -9.357939080910213E-014
   13.7868750000000        -9.763425735259768E-014
   14.0006250000000        -1.014988329526757E-013
   14.2143750000000        -1.051499330622491E-013
   14.4281250000000        -1.085862749216698E-013
   14.6418750000000        -1.118269707103407E-013
   14.8556250000000        -1.149074787108149E-013
   15.0693750000000        -1.178742409453369E-013
   15.2831250000000        -1.207792499927952E-013
   15.4968750000000        -1.236743483386320E-013
   15.7106250000000        -1.266078081052879E-013
   15.9243750000000        -1.296217247630251E-013
   16.1381250000000        -1.327517169720510E-013
   16.3518750000000        -1.360276296078955E-013
   16.5656250000000        -1.394751863844491E-013
   16.7793750000000        -1.431175438713382E-013
   16.9931250000000        -1.469766717756965E-013
   17.2068750000000        -1.510730136699351E-013
   17.4206250000000        -1.554241001776569E-013
   17.6343750000000        -1.600422340036615E-013
   17.8481250000000        -1.649308586455815E-013
   18.0618750000000        -1.700817481014634E-013
   18.2756250000000        -1.754730561467226E-013
   18.4893750000000        -1.810687643204599E-013
   18.7031250000000        -1.868209425079702E-013
   18.9168750000000        -1.926740458401367E-013
   19.1306250000000        -1.985710511469242E-013
   19.3443750000000        -2.044603134942819E-013
   19.5581250000000        -2.103028182440678E-013
   19.7718750000000        -2.160767604530525E-013
   19.9856250000000        -2.217805195772780E-013
   20.1993750000000        -2.274320530127038E-013
   20.4131250000000        -2.330646615368614E-013
   20.6268750000000        -2.387201110395848E-013
   20.8406250000000        -2.444394469862972E-013
   21.0543750000000        -2.502537827235507E-013
   21.2681250000000        -2.561758209239682E-013
   21.4818750000000        -2.621940874539848E-013
   21.6956250000000        -2.682713157255110E-013
   21.9093750000000        -2.743466613101912E-013
   22.1231250000000        -2.803423813696829E-013
   22.3368750000000        -2.861739725736410E-013
   22.5506250000000        -2.917620426941480E-013
   22.7643750000000        -2.970441273614138E-013
   22.9781250000000        -3.019854473146326E-013
   23.1918750000000        -3.065858434606478E-013
   23.4056250000000        -3.108832269753956E-013
   23.6193750000000        -3.149513393019973E-013
   23.8331250000000        -3.188938270476265E-013
   24.0468750000000        -3.228348847672491E-013
   24.2606250000000        -3.269075415814943E-013
   24.4743750000000        -3.312419624112712E-013
   24.6881250000000        -3.359543909782818E-013
   24.9018750000000        -3.411387073331311E-013
   25.1156250000000        -3.468609182225736E-013
   25.3293750000000        -3.531568584359807E-013
   25.5431250000000        -3.600328604049101E-013
   25.7568750000000        -3.674685037246553E-013
   25.9706250000000        -3.754208679749364E-013
   26.1843750000000        -3.838297715010149E-013
   26.3981250000000        -3.926223109316297E-013
   26.6118750000000        -4.017174790574745E-013
   26.8256250000000        -4.110296980774206E-013
   27.0393750000000        -4.204719499052179E-013
   27.2531250000000        -4.299584512895591E-013
   27.4668750000000        -4.394071597901711E-013
   27.6806250000000        -4.487417938416010E-013
   27.8943750000000        -4.578943341528087E-013
   28.1081250000000        -4.668068326213813E-013
   28.3218750000000        -4.754329984708379E-013
   28.5356250000000        -4.837390226670029E-013
   28.7493750000000        -4.917041054698569E-013
   28.9631250000000        -4.993187987797167E-013
   29.1768750000000        -5.065843368188365E-013
   29.3906250000000        -5.135104135376025E-013
   29.6043750000000        -5.201143938408259E-013
   29.8181250000000        -5.264202605142131E-013
   30.0318750000000        -5.324595234144437E-013
   30.2456250000000        -5.382723768465379E-013
   30.4593750000000        -5.439100333289368E-013
   30.6731250000000        -5.494367370447617E-013
   30.8868750000000        -5.549310532307929E-013
   31.1006250000000        -5.604857137268441E-013
   31.3143750000000        -5.662050056684196E-013
   31.5281250000000        -5.722000077730243E-013
   31.7418750000000        -5.785817590131522E-013
   31.9556250000000        -5.854528415886631E-013
   32.1693750000000        -5.928990409868092E-013
   32.3831250000000        -6.009821619327549E-013
   32.5968750000000        -6.097355154471609E-013
   32.8106250000000        -6.191624215648330E-013
   33.0243750000000        -6.292384131127051E-013
   33.2381250000000        -6.399171650512751E-013
   33.4518750000000        -6.511379421100019E-013
   33.6656250000000        -6.628339995110296E-013
   33.8793750000000        -6.749393426165767E-013
   34.0931250000000        -6.873929433861787E-013
   34.3068750000000        -7.001383672794091E-013
   34.5206250000000        -7.131196123257801E-013
   34.7343750000000        -7.262732817919309E-013
   34.9481250000000        -7.395194185103877E-013
   35.1618750000000        -7.527531731233976E-013
   35.3756250000000        -7.658403273653529E-013
   35.5893750000000        -7.786182349492991E-013
   35.8031250000000        -7.909043575989002E-013
   36.0168750000000        -8.025116404959103E-013
   36.2306250000000        -8.132699617391372E-013
   36.4443750000000        -8.230502160347204E-013
   36.6581250000000        -8.317873831042874E-013
   36.8718750000000        -8.394991777342050E-013
   37.0856250000000        -8.462952850673386E-013
   37.2993750000000        -8.523761138234101E-013
   37.5131250000000        -8.580188179273235E-013
   37.7268750000000        -8.635528331110356E-013
   37.9406250000000        -8.693272285382224E-013
   38.1543750000000        -8.756744194634220E-013
   38.3681250000000        -8.828756607047038E-013
   38.5818750000000        -8.911332362265925E-013
   38.7956250000000        -9.005536706389239E-013
   39.0093750000000        -9.111439854669431E-013
   39.2231250000000        -9.228215067639140E-013
   39.4368750000000        -9.354344315012645E-013
   39.6506250000000        -9.487904142746230E-013
   39.8643750000000        -9.626869206830234E-013
   40.0781250000000        -9.769383120133188E-013
   40.2918750000000        -9.913950037285658E-013
   40.5056250000000        -1.005952470815940E-012
   40.7193750000000        -1.020549025989128E-012
   40.9331250000000        -1.035153360528553E-012
   41.1468750000000        -1.049746021785927E-012
   41.3606250000000        -1.064298967126461E-012
   41.5743750000000        -1.078758222960337E-012
   41.7881250000000        -1.093034363435158E-012
   42.0018750000000        -1.107002897222076E-012
   42.2156250000000        -1.120515735612133E-012
   42.4293750000000        -1.133421573850532E-012
   42.6431250000000        -1.145592967461349E-012
   42.8568750000000        -1.156953761716101E-012
   43.0706250000000        -1.167501966935290E-012
   43.2843750000000        -1.177323822850199E-012
   43.4981250000000        -1.186595212324735E-012
   43.7118750000000        -1.195569379233752E-012
   43.9256250000000        -1.204551881307386E-012
   44.1393750000000        -1.213866787202262E-012
   44.3531250000000        -1.223818539406951E-012
   44.5668750000000        -1.234655518160803E-012
   44.7806250000000        -1.246540838418352E-012
   44.9943750000000        -1.259534778212714E-012
   45.2081250000000        -1.273591075251373E-012
   45.4218750000000        -1.288567337747938E-012
   45.6356250000000        -1.304247745931934E-012
   45.8493750000000        -1.320373890065161E-012
   46.0631250000000        -1.336678732006432E-012
   46.2768750000000        -1.352918809380251E-012
   46.4906250000000        -1.368899478916139E-012
   46.7043750000000        -1.384490785107496E-012
   46.9181250000000        -1.399631698088691E-012
   47.1318750000000        -1.414323432224961E-012
   47.3456250000000        -1.428614481868388E-012
   47.5593750000000        -1.442580323696489E-012
   47.7731250000000        -1.456302336701749E-012
   47.9868750000000        -1.469849427567130E-012
   48.2006250000000        -1.483265778402547E-012
   48.4143750000000        -1.496566023475153E-012
   48.6281250000000        -1.509738505453461E-012
   48.8418750000000        -1.522754313851673E-012
   49.0556250000000        -1.535580546766418E-012
   49.2693750000000        -1.548193931952272E-012
   49.4831250000000        -1.560592434478675E-012
   49.6968750000000        -1.572801575438231E-012
   49.9106250000000        -1.584874579221051E-012
   50.1243750000000        -1.596885400115276E-012
   50.3381250000000        -1.608917570400362E-012
   50.5518750000000        -1.621049714789661E-012
   50.7656250000000        -1.633341685810734E-012
   50.9793750000000        -1.645824446150749E-012
   51.1931250000000        -1.658496195368717E-012
   51.4068750000000        -1.671327316647561E-012
   51.6206250000000        -1.684272933566739E-012
   51.8343750000000        -1.697293143911707E-012
   52.0481250000000        -1.710376353356336E-012
   52.2618750000000        -1.723562153414778E-012
   52.4756250000000        -1.736958856503094E-012
   52.6893750000000        -1.750750311881042E-012
   52.9031250000000        -1.765189432308403E-012
   53.1168750000000        -1.780575929171946E-012
   53.3306250000000        -1.797219324396697E-012
   53.5443750000000        -1.815389976356846E-012
   53.7581250000000        -1.835265163649868E-012
   53.9718750000000        -1.856876902487898E-012
   54.1856250000000        -1.880071218900844E-012
   54.3993750000000        -1.904486193125945E-012
   54.6131250000000        -1.929556862251655E-012
   54.8268750000000        -1.954549457607318E-012
   55.0406250000000        -1.978625376380530E-012
   55.2543750000000        -2.000930436568695E-012
   55.4681250000000        -2.020700590895602E-012
   55.6818750000000        -2.037371261832023E-012
   55.8956250000000        -2.050675890747960E-012
   56.1093750000000        -2.060718403395272E-012
   56.3231250000000        -2.068005903249725E-012
   56.5368750000000        -2.073431893100094E-012
   56.7506250000000        -2.078205361962548E-012
   56.9643750000000        -2.083728696636744E-012
   57.1781250000000        -2.091433252501122E-012
   57.3918750000000        -2.102590037465804E-012
   57.6056250000000        -2.118117803022501E-012
   57.8193750000000        -2.138413584107201E-012
   58.0331250000000        -2.163232470429023E-012
   58.2468750000000        -2.191639066692506E-012
   58.4606250000000        -2.222047048306135E-012
   58.6743750000000        -2.252354708975139E-012
   58.8881250000000        -2.280171809346087E-012
   59.1018750000000        -2.303121289132967E-012
   59.3156250000000        -2.319185234136621E-012
   59.5293750000000        -2.327058566598759E-012
   59.7431250000000        -2.326461133285640E-012
   59.9568750000000        -2.318362005838178E-012
   60.1706250000000        -2.305071128199936E-012
   60.3843750000000        -2.290163500677343E-012
   60.5981250000000        -2.278218654830572E-012
   60.8118750000000        -2.274377153805332E-012
   61.0256250000000        -2.283741208297450E-012
   61.2393750000000        -2.310670775846652E-012
   61.4531250000000        -2.358047817618207E-012
   61.6668750000000        -2.426600391357749E-012
   61.8806250000000        -2.514382618958605E-012
   62.0943750000000        -2.616506939754824E-012
   62.3081250000000        -2.725206690113278E-012
   62.5218750000000        -2.830280597000421E-012
   62.7356250000000        -2.919930100763577E-012
   62.9493750000000        -2.981952336939656E-012
   63.1631250000000        -3.005202100319579E-012
   63.3768750000000        -2.981185473316590E-012
   63.5906250000000        -2.905608972043251E-012
   63.8043750000000        -2.779682798784246E-012
   64.0181250000000        -2.610974655389801E-012
   64.2318750000000        -2.413631562734256E-012
   64.4456250000000        -2.207833882200996E-012
   64.6593750000000        -2.018419873080308E-012
   64.8731250000000        -1.872708949583742E-012
   65.0868750000000        -1.797654615048891E-012
   65.3006250000000        -1.816562007874558E-012
   65.5143750000000        -1.945692907001584E-012
   65.7281250000000        -2.191148139578701E-012
   65.9418750000000        -2.546443199988182E-012
   66.1556250000000        -2.991175858688162E-012
   66.3693750000000        -3.491115492200628E-012
   66.5831250000000        -3.999926086518372E-012
   66.7968750000000        -4.462575704832513E-012
   67.0106250000000        -4.820292632627946E-012
   67.2243750000000        -5.016730615174090E-012
   67.4381250000000        -5.004811415594058E-012
   67.6518750000000        -4.753560772133577E-012
   67.8656250000000        -4.254150888225859E-012
   68.0793750000000        -3.524343290095378E-012
   68.2931250000000        -2.610591632602942E-012
   68.5068750000000        -1.587223810965000E-012
   68.7206250000000        -5.523731495576514E-013
   68.9343750000000         3.793534681063041E-013
   69.1481250000000         1.087116163699133E-012
   69.3618750000000         1.456265391938842E-012
   69.5756250000000         1.391876030744788E-012
   69.7893750000000         8.320529682301665E-013
   70.0031250000000        -2.404886219048331E-013
   70.2168750000000        -1.790077209379824E-012
   70.4306250000000        -3.724330054972381E-012
   70.6443750000000        -5.896023561910376E-012
   70.8581250000000        -8.111148509931892E-012
   71.0718750000000        -1.014311024529001E-011
   71.2856250000000        -1.175236230863474E-011
   71.4993750000000        -1.271008441868101E-011
   71.7131250000000        -1.282389761999835E-011
   71.9268750000000        -1.196313447286010E-011
   72.1406250000000        -1.008091356246692E-011
   72.3543750000000        -7.230259605525063E-012
   72.5681250000000        -3.571801967404111E-012
   72.7818750000000         6.288308237921555E-013
   72.9956250000000         5.014936372335567E-012
   73.2093750000000         9.163927751324870E-012
   73.4231250000000         1.262252874014290E-011
   73.6368750000000         1.494950731642761E-011
   73.8506250000000         1.576238965729950E-011
   74.0643750000000         1.478375392141734E-011
   74.2781250000000         1.188222952208789E-011
   74.4918750000000         7.103317698295249E-012
   74.7056250000000         6.856553952176192E-013
   74.9193750000000        -6.940625736798884E-012
   75.1331250000000        -1.517529151855371E-011
   75.3468750000000        -2.328912854529036E-011
   75.5606250000000        -3.048270614957618E-011
   75.7743750000000        -3.595860639326634E-011
   75.9881250000000        -3.900109176962710E-011
   76.2018750000000        -3.905576133802907E-011
   76.4156250000000        -3.580097311230371E-011
   76.6293750000000        -2.920283034787154E-011
   76.8431250000000        -1.954643379611307E-011
   77.0568750000000        -7.437882231046692E-012
   77.2706250000000         6.225947540461122E-012
   77.4843750000000         2.031967829530272E-011
   77.6981250000000         3.358018659838111E-011
   77.9118750000000         4.471889076345064E-011
   78.1256250000000         5.254569769670554E-011
   78.3393750000000         5.609261250858986E-011
   78.5531250000000         5.472401227741614E-011
   78.7668750000000         4.822092828187072E-011
   78.9806250000000         3.682846944080989E-011
   79.1943750000000         2.125868339321775E-011
   79.4081250000000         2.645470067983087E-012
   79.6218750000000        -1.754675579983797E-011
   79.8356250000000        -3.765362208920270E-011
   80.0493750000000        -5.596856132140795E-011
   80.2631250000000        -7.091174728845783E-011
   80.4768750000000        -8.119170682635354E-011
   80.6906250000000        -8.594062546934792E-011
   80.9043750000000        -8.480613413317671E-011
   81.1181250000000        -7.798638759447787E-011
   81.3318750000000        -6.620126230344124E-011
   81.5456250000000        -5.059997094939803E-011
   81.7593750000000        -3.261353736818843E-011
   81.9731250000000        -1.376843274295957E-011
   82.1868750000000         4.515772648931349E-012
   82.4006250000000         2.111763623859134E-011
   82.6143750000000         3.536570548568368E-011
   82.8281250000000         4.712526905146325E-011
   83.0418750000000         5.680050928322106E-011
   83.2556250000000         6.524224279251535E-011
   83.4693750000000         7.356371381195957E-011
   83.6831250000000         8.288051978183951E-011
   83.8968750000000         9.400410060825678E-011
   84.1106250000000         1.071295267943633E-010
   84.3243750000000         1.215658051106396E-010
   84.5381250000000         1.355590472310994E-010
   84.7518750000000         1.462545439559272E-010
   84.9656250000000         1.498326392235958E-010
   85.1793750000000         1.418356844921146E-010
   85.3931250000000         1.176805254285749E-010
   85.6068750000000         7.332500144953863E-011
   85.8206250000000         6.030596399226844E-012
   86.0343750000000        -8.486012246025848E-011
   86.2481250000000        -1.972299490810727E-010
   86.4618750000000        -3.256840760009164E-010
   86.6756250000000        -4.613407779861805E-010
   86.8893750000000        -5.920020612634923E-010
   87.1031250000000        -7.027607602686503E-010
   87.3168750000000        -7.770591075096214E-010
   87.5306250000000        -7.981637982250820E-010
   87.7443750000000        -7.509684916339454E-010
   87.9581250000000        -6.239821056912540E-010
   88.1718750000000        -4.113163446890930E-010
   88.3856250000000        -1.144547896410436E-010
   88.5993750000000         2.564259779805926E-010
   88.8131250000000         6.818013411731225E-010
   89.0268750000000         1.132991154331112E-009
   89.2406250000000         1.573319820173356E-009
   89.4543750000000         1.960281037903001E-009
   89.6681250000000         2.248645856160098E-009
   89.8818750000000         2.394347014190939E-009
   90.0956250000000         2.358869845315144E-009
   90.3093750000000         2.113791260107035E-009
   90.5231250000000         1.645044363115459E-009
   90.7368750000000         9.564565888857730E-010
   90.9506250000000         7.212091847123242E-011
   91.1643750000000        -9.627836559393874E-010
   91.3781250000000        -2.083005282883283E-009
   91.5918750000000        -3.206208657531356E-009
   91.8056250000000        -4.237913367754265E-009
   92.0193750000000        -5.078167639420730E-009
   92.2331250000000        -5.629557780615334E-009
   92.4468750000000        -5.805985428036406E-009
   92.6606250000000        -5.541512270618175E-009
   92.8743750000000        -4.798491194434835E-009
   93.0881250000000        -3.574186147581293E-009
   93.3018750000000        -1.905137777888233E-009
   93.5156250000000         1.313407897343568E-010
   93.7293750000000         2.418959344556723E-009
   93.9431250000000         4.807709381927152E-009
   94.1568750000000         7.122472928975537E-009
   94.3706250000000         9.174568833549968E-009
   94.5843750000000         1.077553688434034E-008
   94.7981250000000         1.175221158381128E-008
   95.0118750000000         1.196195195610045E-008
   95.2256250000000         1.130679188880770E-008
   95.4393750000000         9.745271429860687E-009
   95.6531250000000         7.300809582098547E-009
   95.8668750000000         4.065681087274047E-009
   96.0806250000000         1.999521125580226E-010
   96.2943750000000        -4.074907073427880E-009
   96.5081250000000        -8.487607102012099E-009
   96.7218750000000        -1.273327710785237E-008
   96.9356250000000        -1.649341155645955E-008
   97.1493750000000        -1.945823946716568E-008
   97.3631250000000        -2.134997068289237E-008
   97.5768750000000        -2.194522434533735E-008
   97.7906250000000        -2.109492020892336E-008
   98.0043750000000        -1.874002021256709E-008
   98.2181250000000        -1.492174182124437E-008
   98.4318750000000        -9.785211900944152E-009
   98.6456250000000        -3.575967009389616E-009
   98.8593750000000         3.370797727180483E-009
   99.0731250000000         1.064780923987312E-008
   99.2868750000000         1.779919956125888E-008
   99.5006250000000         2.434851099604096E-008
   99.7143750000000         2.982947585768221E-008
   99.9281250000000         3.381756987156639E-008
   100.141875000000         3.596021895747166E-008
   100.355625000000         3.600356425974648E-008
   100.569375000000         3.381386051172199E-008
   100.783125000000         2.939188854309153E-008
   100.996875000000         2.287918507917114E-008
   101.210625000000         1.455540507674109E-008
   101.424375000000         4.826700665945563E-009
   101.638125000000        -5.794410652270837E-009
   101.851875000000        -1.671664612562399E-008
   102.065625000000        -2.730347048438133E-008
   102.279375000000        -3.691054329470049E-008
   102.493125000000        -4.492482078530599E-008
   102.706875000000        -5.080287195800765E-008
   102.920625000000        -5.410596422226631E-008
   103.134375000000        -5.452962846023919E-008
   103.348125000000        -5.192572103006139E-008
   103.561875000000        -4.631544442499059E-008
   103.775625000000        -3.789234343141271E-008
   103.989375000000        -2.701492578981865E-008
   104.203125000000        -1.418922528256296E-008
   104.416875000000        -4.228645737946268E-011
   104.630625000000         1.471184192492792E-008
   104.844375000000         2.931150723305491E-008
   105.058125000000         4.298977587598800E-008
   105.271875000000         5.501700155291963E-008
   105.485625000000         6.474094347064326E-008
   105.699375000000         7.162191568857684E-008
   105.913125000000         7.526081201967579E-008
   106.126875000000         7.541837771986978E-008
   106.340625000000         7.202475192743970E-008
   106.554375000000         6.517903350584373E-008
   106.768125000000         5.513936869689997E-008
   106.981875000000         4.230475849434599E-008
   107.195625000000         2.719037451371386E-008
   107.409375000000         1.039859872097256E-008
   107.623125000000        -7.411778545781129E-009
   107.836875000000        -2.555578201658957E-008
   108.050625000000        -4.334972807065159E-008
   108.264375000000        -6.013425687747477E-008
   108.478125000000        -7.529186984391627E-008
   108.691875000000        -8.825868285902774E-008
   108.905625000000        -9.853090065243889E-008
   109.119375000000        -1.056672578226192E-007
   109.333125000000        -1.092892682254209E-007
   109.546875000000        -1.090814954411682E-007
   109.760625000000        -1.047941398593651E-007
   109.974375000000        -9.624999578205859E-008
   110.188125000000        -8.335726094747115E-008
   110.401875000000        -6.612881368530297E-008
   110.615625000000        -4.470747901155731E-008
   110.829375000000        -1.939558706680176E-008
   111.043125000000         9.314086092709405E-009
   111.256875000000         4.070997078897002E-008
   111.470625000000         7.384069724509718E-008
   111.684375000000         1.075065273570954E-007
   111.898125000000         1.402681446468082E-007
   112.111875000000         1.704769599163801E-007
   112.325625000000         1.963297366934558E-007
   112.539375000000         2.159484506455295E-007
   112.753125000000         2.274839867183987E-007
   112.966875000000         2.292397193679789E-007
   113.180625000000         2.198084331493375E-007
   113.394375000000         1.982136705353671E-007
   113.608125000000         1.640446968667300E-007
   113.821875000000         1.175730890171023E-007
   114.035625000000         5.983868495346600E-008
   114.249375000000        -7.306586796774572E-009
   114.463125000000        -8.120659040504011E-008
   114.676875000000        -1.584672163439907E-007
   114.890625000000        -2.350837216771809E-007
   115.104375000000        -3.066273633265124E-007
   115.318125000000        -3.684845736694386E-007
   115.531875000000        -4.161370088770409E-007
   115.745625000000        -4.454663184760212E-007
   115.959375000000        -4.530638586648880E-007
   116.173125000000        -4.365231840210544E-007
   116.386875000000        -3.946923113511923E-007
   116.600625000000        -3.278636589158694E-007
   116.814375000000        -2.378822964175879E-007
   117.028125000000        -1.281576214904705E-007
   117.241875000000        -3.569581652429100E-009
   117.455625000000         1.297322806372287E-007
   117.669375000000         2.646308560302477E-007
   117.883125000000         3.934305474503855E-007
   118.096875000000         5.083119883168953E-007
   118.310625000000         6.018247421319298E-007
   118.524375000000         6.673857855204485E-007
   118.738125000000         6.997491985576629E-007
   118.951875000000         6.954125788344877E-007
   119.165625000000         6.529283875222685E-007
   119.379375000000         5.730936549433980E-007
   119.593125000000         4.589989441173828E-007
   119.806875000000         3.159267266143850E-007
   120.020625000000         1.510997369951424E-007
   120.234375000000        -2.670930696980609E-008
   120.448125000000        -2.076848115942041E-007
   120.661875000000        -3.815612284618212E-007
   120.875625000000        -5.382635288303136E-007
   121.089375000000        -6.685523048832174E-007
   121.303125000000        -7.646289290279661E-007
   121.516875000000        -8.206578046276589E-007
   121.730625000000        -8.331675647340468E-007
   121.944375000000        -8.013008454798622E-007
   122.158125000000        -7.268924678544009E-007
   122.371875000000        -6.143677937523609E-007
   122.585625000000        -4.704658165890325E-007
   122.799375000000        -3.038042538825443E-007
   123.013125000000        -1.243155655445109E-007
   123.226875000000         5.740747485226232E-008
   123.440625000000         2.308110463656451E-007
   123.654375000000         3.860750864398167E-007
   123.868125000000         5.147542705810662E-007