  -1.60312500000000         2.782894594384783E-019
  -1.38937500000000         2.654769351444877E-018
  -1.17562500000000         1.527525538940518E-017
 -0.961875000000000         6.461492981454386E-017
 -0.748125000000000         2.200700315117290E-016
 -0.534375000000000         6.074242955251991E-016
 -0.320625000000000         1.319546478770522E-015
 -0.106875000000000         2.039748429888763E-015
  0.106875000000000         1.181282824748987E-015
  0.320625000000000        -5.423775065631049E-015
  0.534375000000000        -2.620603836390425E-014
  0.748125000000000        -7.506406470795798E-014
  0.961875000000000        -1.722072529164777E-013
   1.17562500000000        -3.442098204837542E-013
   1.38937500000000        -6.232678834693549E-013
   1.60312500000000        -1.045556269594783E-012
   1.81687500000000        -1.649734523490037E-012
   2.03062500000000        -2.473432832125133E-012
   2.24437500000000        -3.550180724795727E-012
   2.45812500000000        -4.905474440840536E-012
   2.67187500000000        -6.552624525131447E-012
   2.88562500000000        -8.492285267904055E-012
   3.09937500000000        -1.070567794639852E-011
   3.31312500000000        -1.316041832727408E-011
   3.52687500000000        -1.580765102236879E-011
   3.74062500000000        -1.858808745876979E-011
   3.95437500000000        -2.143807369811318E-011
   4.16812500000000        -2.429590308851547E-011
   4.38187500000000        -2.711249633658709E-011
   4.59562500000000        -2.985338502088206E-011
   4.80937500000000        -3.251055391930904E-011
   5.02312500000000        -3.510097464594634E-011
   5.23687500000000        -3.766575691279471E-011
   5.45062500000000        -4.026547875088887E-011
   5.66437500000000        -4.296548814373540E-011
   5.87812500000000        -4.582965389183121E-011
   6.09187500000000        -4.889906202754481E-011
   6.30562500000000        -5.217757229164713E-011
   6.51937500000000        -5.562621358293541E-011
   6.73312500000000        -5.915073362519647E-011
   6.94687500000000        -6.260865508372302E-011
   7.16062500000000        -6.581502213510767E-011
   7.37437500000000        -6.856686051559079E-011
   7.58812500000000        -7.066196176160166E-011
   7.80187500000000        -7.192598745549064E-011
   8.01562500000000        -7.224300317304477E-011
   8.22937500000000        -7.157016384580119E-011
   8.44312500000000        -6.995375468485983E-011
   8.65687500000000        -6.752128859424820E-011
   8.87062500000000        -6.447637453369417E-011
   9.08437500000000        -6.106712207568113E-011
   9.29812500000000        -5.755494154967602E-011
   9.51187500000000        -5.417551647815850E-011
   9.72562500000000        -5.110875033095737E-011
   9.93937500000000        -4.845045170619232E-011
   10.1531250000000        -4.620345925590586E-011
   10.3668750000000        -4.427716381676869E-011
   10.5806250000000        -4.251130691537073E-011
   10.7943750000000        -4.071072606920127E-011
   11.0081250000000        -3.867734771262537E-011
   11.2218750000000        -3.626085781904947E-011
   11.4356250000000        -3.338632829389866E-011
   11.6493750000000        -3.007691793006306E-011
   11.8631250000000        -2.645523999851641E-011
   12.0768750000000        -2.272833139000462E-011
   12.2906250000000        -1.915487828516745E-011
   12.5043750000000        -1.599817007024111E-011
   12.7181250000000        -1.348370921920355E-011
   12.9318750000000        -1.175126048580871E-011
   13.1456250000000        -1.082775960363123E-011
   13.3593750000000        -1.061702717320328E-011
   13.5731250000000        -1.090813801931047E-011
   13.7868750000000        -1.140995900157745E-011
   14.0006250000000        -1.179406960938179E-011
   14.2143750000000        -1.175191779430673E-011
   14.4281250000000        -1.104629376502723E-011
   14.6418750000000        -9.552259298189054E-012
   14.8556250000000        -7.282553997958438E-012
   15.0693750000000        -4.386958962166450E-012
   15.2831250000000        -1.134372917196737E-012
   15.4968750000000         2.128462078756259E-012
   15.7106250000000         5.031002666888640E-012
   15.9243750000000         7.230641454016737E-012
   16.1381250000000         8.463038915617374E-012
   16.3518750000000         8.578959549188697E-012
   16.5656250000000         7.554858870369899E-012
   16.7793750000000         5.493908438455632E-012
   16.9931250000000         2.594911211743994E-012
   17.2068750000000        -8.829425356630182E-013
   17.4206250000000        -4.668850697627498E-012
   17.6343750000000        -8.523022080675494E-012
   17.8481250000000        -1.227188836585974E-011
   18.0618750000000        -1.583147465170491E-011
   18.2756250000000        -1.920719711778059E-011
   18.4893750000000        -2.248588285402033E-011
   18.7031250000000        -2.580039593665238E-011
   18.9168750000000        -2.930185080172651E-011
   19.1306250000000        -3.312147011674153E-011
   19.3443750000000        -3.733320327224373E-011
   19.5581250000000        -4.193936084507315E-011
   19.7718750000000        -4.685678416776480E-011
   19.9856250000000        -5.192585355584468E-011
   20.1993750000000        -5.692625165315747E-011
   20.4131250000000        -6.160681451400431E-011
   20.6268750000000        -6.571665291604181E-011
   20.8406250000000        -6.903518323542070E-011
   21.0543750000000        -7.140407180155418E-011
   21.2681250000000        -7.274259640591362E-011
   21.4818750000000        -7.305695788469730E-011
   21.6956250000000        -7.243852085387293E-011
   21.9093750000000        -7.105427728911735E-011
   22.1231250000000        -6.912407082788441E-011
   22.3368750000000        -6.689816833418235E-011
   22.5506250000000        -6.463417020640409E-011
   22.7643750000000        -6.256734740458064E-011
   22.9781250000000        -6.089524157235214E-011
   23.1918750000000        -5.975954667049197E-011
   23.4056250000000        -5.923945543254630E-011
   23.6193750000000        -5.935413086094859E-011
   23.8331250000000        -6.006577288969100E-011
   24.0468750000000        -6.129330583597891E-011
   24.2606250000000        -6.292685686677356E-011
   24.4743750000000        -6.484773792822037E-011
   24.6881250000000        -6.693822585846839E-011
   24.9018750000000        -6.909395448314554E-011
   25.1156250000000        -7.123168195084885E-011
   25.3293750000000        -7.328052381093710E-011
   25.5431250000000        -7.518202788570031E-011
   25.7568750000000        -7.687503942983998E-011
   25.9706250000000        -7.827926642639704E-011
   26.1843750000000        -7.928969470353156E-011
   26.3981250000000        -7.977009689903018E-011
   26.6118750000000        -7.955514453188028E-011
   26.8256250000000        -7.846338592036976E-011
   27.0393750000000        -7.632065000004950E-011
   27.2531250000000        -7.298992944754398E-011
   27.4668750000000        -6.839806880421381E-011
   27.6806250000000        -6.256840108222780E-011
   27.8943750000000        -5.564047595788218E-011
   28.1081250000000        -4.787285928738325E-011
   28.3218750000000        -3.963492838917591E-011
   28.5356250000000        -3.137670937159247E-011
   28.7493750000000        -2.359168607848637E-011
   28.9631250000000        -1.676037822713217E-011
   29.1768750000000        -1.129833678113282E-011
   29.3906250000000        -7.508455899267883E-012
   29.6043750000000        -5.543457282933626E-012
   29.8181250000000        -5.392712095009127E-012
   30.0318750000000        -6.884431714039157E-012
   30.2456250000000        -9.712412361875635E-012
   30.4593750000000        -1.347892427270248E-011
   30.6731250000000        -1.774666882721562E-011
   30.8868750000000        -2.209397196744112E-011
   31.1006250000000        -2.616424857923402E-011
   31.3143750000000        -2.969823468972874E-011
   31.5281250000000        -3.255583078590993E-011
   31.7418750000000        -3.470891371096602E-011
   31.9556250000000        -3.622610332976273E-011
   32.1693750000000        -3.723951680025314E-011
   32.3831250000000        -3.791070793646386E-011
   32.5968750000000        -3.839097164080832E-011
   32.8106250000000        -3.880080532678667E-011
   33.0243750000000        -3.920976914352526E-011
   33.2381250000000        -3.964161663617986E-011
   33.4518750000000        -4.008232136766461E-011
   33.6656250000000        -4.050506182747147E-011
   33.8793750000000        -4.089334761546666E-011
   34.0931250000000        -4.126436344215518E-011
   34.3068750000000        -4.168262459126600E-011
   34.5206250000000        -4.226475526524270E-011
   34.7343750000000        -4.316865675042975E-011
   34.9481250000000        -4.457383782452650E-011
   35.1618750000000        -4.665166601805993E-011
   35.3756250000000        -4.953798470892467E-011
   35.5893750000000        -5.329918828874654E-011
   35.8031250000000        -5.791718592635394E-011
   36.0168750000000        -6.328069034661862E-011
   36.2306250000000        -6.918670482378499E-011
   36.4443750000000        -7.536502349227931E-011
   36.6581250000000        -8.150144017088885E-011
   36.8718750000000        -8.727799303004966E-011
   37.0856250000000        -9.240557106757885E-011
   37.2993750000000        -9.666144080864566E-011
   37.5131250000000        -9.990904840367219E-011
   37.7268750000000        -1.021162398533493E-010
   37.9406250000000        -1.033536720451031E-010
   38.1543750000000        -1.037819928519712E-010
   38.3681250000000        -1.036291670559278E-010
   38.5818750000000        -1.031579453059604E-010
   38.7956250000000        -1.026337952865325E-010
   39.0093750000000        -1.022850530541969E-010
   39.2231250000000        -1.022777103014304E-010
   39.4368750000000        -1.026872003474881E-010
   39.6506250000000        -1.034949995327049E-010
   39.8643750000000        -1.045888273059913E-010
   40.0781250000000        -1.057753320693007E-010
   40.2918750000000        -1.068106073183004E-010
   40.5056250000000        -1.074335456882938E-010
   40.7193750000000        -1.074046768521234E-010
   40.9331250000000        -1.065445747431127E-010
   41.1468750000000        -1.047638595619928E-010
   41.3606250000000        -1.020829035142875E-010
   41.5743750000000        -9.863832153464849E-011
   41.7881250000000        -9.466829434674640E-011
   42.0018750000000        -9.048979548444376E-011
   42.2156250000000        -8.645720487372130E-011
   42.4293750000000        -8.291552398998063E-011
   42.6431250000000        -8.015587903963050E-011
   42.8568750000000        -7.837319560894930E-011
   43.0706250000000        -7.763996257277038E-011
   43.2843750000000        -7.789486262500276E-011
   43.4981250000000        -7.895193429078437E-011
   43.7118750000000        -8.052738019855139E-011
   43.9256250000000        -8.228105717692394E-011
   44.1393750000000        -8.386353368556323E-011
   44.3531250000000        -8.496833666178997E-011
   44.5668750000000        -8.537067408833007E-011
   44.7806250000000        -8.495374197296319E-011
   44.9943750000000        -8.372121487870011E-011
   45.2081250000000        -8.178520800873594E-011
   45.4218750000000        -7.933998780050216E-011
   45.6356250000000        -7.662348813301960E-011
   45.8493750000000        -7.387614123685028E-011
   46.0631250000000        -7.130157907307196E-011
   46.2768750000000        -6.904113390362911E-011
   46.4906250000000        -6.715828224287922E-011
   46.7043750000000        -6.564590579842439E-011
   46.9181250000000        -6.444738598236342E-011
   47.1318750000000        -6.348672438143419E-011
   47.3456250000000        -6.270595200155753E-011
   47.5593750000000        -6.209618756346190E-011
   47.7731250000000        -6.171956478040549E-011
   47.9868750000000        -6.171338146947931E-011
   48.2006250000000        -6.227779622394590E-011
   48.4143750000000        -6.364580117920889E-011
   48.6281250000000        -6.604212736971144E-011
   48.8418750000000        -6.963522247272876E-011
   49.0556250000000        -7.449357384879177E-011
   49.2693750000000        -8.055699505136345E-011
   49.4831250000000        -8.762306222077288E-011
   49.6968750000000        -9.535610867211790E-011
   49.9106250000000        -1.033212924708713E-010
   50.1243750000000        -1.110317880813185E-010
   50.3381250000000        -1.180119485495650E-010
   50.5518750000000        -1.238555043464841E-010
   50.7656250000000        -1.282813282602736E-010
   50.9793750000000        -1.311704002136816E-010
   51.1931250000000        -1.325774551874188E-010
   51.4068750000000        -1.327215871324071E-010
   51.6206250000000        -1.319493769661752E-010
   51.8343750000000        -1.306827880451478E-010
   52.0481250000000        -1.293577876447058E-010
   52.2618750000000        -1.283613992753848E-010
   52.4756250000000        -1.279822173674029E-010
   52.6893750000000        -1.283750654197023E-010
   52.9031250000000        -1.295537081397393E-010
   53.1168750000000        -1.314057710432163E-010
   53.3306250000000        -1.337286578346775E-010
   53.5443750000000        -1.362764943622467E-010
   53.7581250000000        -1.388200453253915E-010
   53.9718750000000        -1.411906813985359E-010
   54.1856250000000        -1.433171902274855E-010
   54.3993750000000        -1.452364050945918E-010
   54.6131250000000        -1.470831142254353E-010
   54.8268750000000        -1.490521053920663E-010
   55.0406250000000        -1.513506682132595E-010
   55.2543750000000        -1.541356813108059E-010
   55.4681250000000        -1.574587171482809E-010
   55.6818750000000        -1.612267936576466E-010
   55.8956250000000        -1.651841647937464E-010
   56.1093750000000        -1.689272699065298E-010
   56.3231250000000        -1.719484155810518E-010
   56.5368750000000        -1.737029111053875E-010
   56.7506250000000        -1.736988931446409E-010
   56.9643750000000        -1.715849239409705E-010
   57.1781250000000        -1.672278320114300E-010
   57.3918750000000        -1.607672210034060E-010
   57.6056250000000        -1.526368435515120E-010
   57.8193750000000        -1.435357080469438E-010
   58.0331250000000        -1.343687528637799E-010
   58.2468750000000        -1.261454912748805E-010
   58.4606250000000        -1.198535875615525E-010
   58.6743750000000        -1.163256396949592E-010
   58.8881250000000        -1.161160710018267E-010
   59.1018750000000        -1.194020554601258E-010
   59.3156250000000        -1.259264206688514E-010
   59.5293750000000        -1.349834377056458E-010
   59.7431250000000        -1.454747463453357E-010
   59.9568750000000        -1.560074272216953E-010
   60.1706250000000        -1.650371908712945E-010
   60.3843750000000        -1.710519042709582E-010
   60.5981250000000        -1.727585497323546E-010
   60.8118750000000        -1.692814516439256E-010
   61.0256250000000        -1.603104106942959E-010
   61.2393750000000        -1.462271420391055E-010
   61.4531250000000        -1.281491863348644E-010
   61.6668750000000        -1.079012731941044E-010
   61.8806250000000        -8.790355528189103E-011
   62.0943750000000        -7.096588142127265E-011
   62.3081250000000        -6.000757825047380E-011
   62.5218750000000        -5.771769155008497E-011
   62.7356250000000        -6.618025688769725E-011
   62.9493750000000        -8.650940622350536E-011
   63.1631250000000        -1.185356738882519E-010
   63.3768750000000        -1.605928627938631E-010
   63.5906250000000        -2.094507497402212E-010
   63.8043750000000        -2.604354773735452E-010
   64.0181250000000        -3.077507449979382E-010
   64.2318750000000        -3.450080048040745E-010
   64.4456250000000        -3.659275034311317E-010
   64.6593750000000        -3.651609074489047E-010
   64.8731250000000        -3.391443814642336E-010
   65.0868750000000        -2.868737888757308E-010
   65.3006250000000        -2.104928304404701E-010
   65.5143750000000        -1.155756838471677E-010
   65.7281250000000        -1.101492484512035E-011
   65.9418750000000         9.153607768319246E-011
   66.1556250000000         1.786800150324568E-010
   66.3693750000000         2.366759686588373E-010
   66.5831250000000         2.531160454292463E-010
   66.7968750000000         2.187048285777572E-010
   67.0106250000000         1.289145441952070E-010
   67.2243750000000        -1.470920481861262E-011
   67.4381250000000        -2.038048642503057E-010
   67.6518750000000        -4.232059903490455E-010
   67.8656250000000        -6.517968339713700E-010
   68.0793750000000        -8.642286149911454E-010
   68.2931250000000        -1.033391915943638E-009
   68.5068750000000        -1.133431059239665E-009
   68.7206250000000        -1.143001674650234E-009
   68.9343750000000        -1.048394672588626E-009
   69.1481250000000        -8.461297291076230E-010
   69.3618750000000        -5.446432302652010E-010
   69.5756250000000        -1.647611016205117E-010
   69.7893750000000         2.612252873783298E-010
   70.0031250000000         6.919218959508095E-010
   70.2168750000000         1.080491437187603E-009
   70.4306250000000         1.379312727173509E-009
   70.6443750000000         1.545185911270394E-009
   70.8581250000000         1.544528637728127E-009
   71.0718750000000         1.357967605942872E-009
   71.2856250000000         9.837569504714086E-010
   71.4993750000000         4.395461934060103E-010
   71.7131250000000        -2.378108195479584E-010
   71.9268750000000        -9.945162726590491E-010
   72.1406250000000        -1.764021713118400E-009
   72.3543750000000        -2.472807479741694E-009
   72.5681250000000        -3.047187337481586E-009
   72.7818750000000        -3.420455392836287E-009
   72.9956250000000        -3.539629056744834E-009
   73.2093750000000        -3.371073170875057E-009
   73.4231250000000        -2.904412344357092E-009
   73.6368750000000        -2.154335605849120E-009
   73.8506250000000        -1.160134647348973E-009
   74.0643750000000         1.691627333275790E-011
   74.2781250000000         1.297988413132040E-009
   74.4918750000000         2.592400699861568E-009
   74.7056250000000         3.803958041764019E-009
   74.9193750000000         4.837271776998314E-009
   75.1331250000000         5.603517431214439E-009
   75.3468750000000         6.025257822634254E-009
   75.5606250000000         6.040188042602059E-009
   75.7743750000000         5.603920918427706E-009
   75.9881250000000         4.692126878597579E-009
   76.2018750000000         3.302474856214284E-009
   76.4156250000000         1.456822414735339E-009
   76.6293750000000        -7.960341865227414E-010
   76.8431250000000        -3.377005942592093E-009
   77.0568750000000        -6.173101427934930E-009
   77.2706250000000        -9.034327410201835E-009
   77.4843750000000        -1.177226600261527E-008
   77.6981250000000        -1.416180665386921E-008
   77.9118750000000        -1.594755099775488E-008
   78.1256250000000        -1.685627451032498E-008
   78.3393750000000        -1.661628856087867E-008
   78.5531250000000        -1.498375855543555E-008
   78.7668750000000        -1.177495015770754E-008
   78.9806250000000        -6.902173594821769E-009
   79.1943750000000        -4.099270961937395E-010
   79.4081250000000         7.493278175451006E-009
   79.6218750000000         1.641265472889173E-008
   79.8356250000000         2.575978809234190E-008
   80.0493750000000         3.476503462273474E-008
   80.2631250000000         4.251317176343554E-008
   80.4768750000000         4.800376052132710E-008
   80.6906250000000         5.023499829996789E-008
   80.9043750000000         4.830675348623889E-008
   81.1181250000000         4.153527508166972E-008
   81.3318750000000         2.956918273849764E-008
   81.5456250000000         1.249411686251073E-008
   81.7593750000000        -9.087713845600515E-009
   81.9731250000000        -3.401659834673147E-008
   82.1868750000000        -6.058464562721544E-008
   82.4006250000000        -8.660355671377754E-008
   82.6143750000000        -1.095340087634654E-007
   82.8281250000000        -1.266737172201518E-007
   83.0418750000000        -1.353944369042960E-007
   83.2556250000000        -1.334114442350553E-007
   83.4693750000000        -1.190630386470028E-007
   83.6831250000000        -9.157322527872943E-008
   83.8968750000000        -5.126848840493544E-008
   84.1106250000000         2.798386677601787E-010
   84.3243750000000         6.021252332365944E-008
   84.5381250000000         1.244569736901425E-007
   84.7518750000000         1.879282831372041E-007
   84.9656250000000         2.448542963953851E-007
   85.1793750000000         2.892097097531627E-007
   85.3931250000000         3.152317269737129E-007
   85.6068750000000         3.179786621283987E-007
   85.8206250000000         2.938842940750908E-007
   86.0343750000000         2.412558711026972E-007
   86.2481250000000         1.606633054847881E-007
   86.4618750000000         5.517168208422638E-008
   86.6756250000000        -6.962118051620446E-008
   86.8893750000000        -2.057663123299171E-007
   87.1031250000000        -3.433709090508417E-007
   87.3168750000000        -4.712182282512917E-007
   87.5306250000000        -5.775667289258402E-007
   87.7443750000000        -6.510763036111976E-007
   87.9581250000000        -6.817938903049843E-007
   88.1718750000000        -6.621200232498276E-007
   88.3856250000000        -5.876732844179567E-007
   88.5993750000000        -4.579719310183282E-007
   88.8131250000000        -2.768614087591230E-007
   89.0268750000000        -5.263246542784988E-008
   89.2406250000000         2.022037370957476E-007
   89.4543750000000         4.714915302254688E-007
   89.6681250000000         7.363380274581881E-007
   89.8818750000000         9.763048033359555E-007
   90.0956250000000         1.170812026753062E-006
   90.3093750000000         1.300662822400076E-006
   90.5231250000000         1.349581604141999E-006
   90.7368750000000         1.305653702592488E-006
   90.9506250000000         1.162555381708895E-006
   91.1643750000000         9.204733053687262E-007
   91.3781250000000         5.866300561521796E-007
   91.5918750000000         1.753562062049366E-007
   91.8056250000000        -2.923220122962590E-007
   92.0193750000000        -7.895790606275709E-007
   92.2331250000000        -1.285138215670891E-006
   92.4468750000000        -1.745008693271320E-006
   92.6606250000000        -2.134521950714352E-006
   92.8743750000000        -2.420555164612669E-006
   93.0881250000000        -2.573813926499240E-006
   93.3018750000000        -2.571037275309432E-006
   93.5156250000000        -2.396986612824972E-006
   93.7293750000000        -2.046085946789022E-006
   93.9431250000000        -1.523593926012050E-006
   94.1568750000000        -8.462076407724583E-007
   94.3706250000000        -4.202350250785821E-008
   94.5843750000000         8.501893462849090E-007
   94.7981250000000         1.782413735221649E-006
   95.0118750000000         2.699481361435362E-006
   95.2256250000000         3.541778111250676E-006
   95.4393750000000         4.248456255702082E-006
   95.6531250000000         4.761015917721554E-006
   95.8668750000000         5.027085523516516E-006
   96.0806250000000         5.004203681684168E-006
   96.2943750000000         4.663384943320647E-006
   96.5081250000000         3.992241267162997E-006
   96.7218750000000         2.997431606383380E-006
   96.9356250000000         1.706225408311638E-006
   97.1493750000000         1.669930903156570E-007
   97.3631250000000        -1.551521829374619E-006
   97.5768750000000        -3.362238815719283E-006
   97.7906250000000        -5.163106520596874E-006
   98.0043750000000        -6.841743130769731E-006
   98.2181250000000        -8.281210626522831E-006
   98.4318750000000        -9.366696596172585E-006
   98.6456250000000        -9.992794709174480E-006
   98.8593750000000        -1.007100175199269E-005
   99.0731250000000        -9.536991386071538E-006
   99.2868750000000        -8.357188143442137E-006
   99.5006250000000        -6.534154792268429E-006
   99.7143750000000        -4.110325813000088E-006
   99.9281250000000        -1.169671713461744E-006
   100.141875000000         2.163036418413142E-006
   100.355625000000         5.725577170558637E-006
   100.569375000000         9.324316576815927E-006
   100.783125000000         1.274284333970886E-005
   100.996875000000         1.575293661614499E-005
   101.210625000000         1.812742479344536E-005
   101.424375000000         1.965432637957946E-005
   101.638125000000         2.015151822894794E-005
   101.851875000000         1.948106356462870E-005
   102.065625000000         1.756226347056047E-005
   102.279375000000         1.438247992371133E-005
   102.493125000000         1.000482247397272E-005
   102.706875000000         4.571897793354051E-006
   102.920625000000        -1.695008942110395E-006
   103.134375000000        -8.501724204515894E-006
   103.348125000000        -1.549207440303731E-005
   103.561875000000        -2.226368628425646E-005
   103.775625000000        -2.838818177225369E-005
   103.989375000000        -3.343491883726297E-005
   104.203125000000        -3.699712210807138E-005
   104.416875000000        -3.871898456240205E-005
   104.630625000000        -3.832212658106175E-005
   104.844375000000        -3.562969054479226E-005
   105.058125000000        -3.058634339104942E-005
   105.271875000000        -2.327256626397376E-005
   105.485625000000        -1.391183280567627E-005
   105.699375000000        -2.869611388216762E-006
   105.913125000000         9.356440923420198E-006
   106.126875000000         2.215521412855089E-005
   106.340625000000         3.482937105229442E-005
   106.554375000000         4.663004563352653E-005
   106.768125000000         5.679743960216066E-005
   106.981875000000         6.460524729379342E-005
   107.195625000000         6.940644104336458E-005
   107.409375000000         7.067768520342728E-005
   107.623125000000         6.805954280622670E-005
   107.836875000000         6.138971304113970E-005
   108.050625000000         5.072679673750039E-005
   108.264375000000         3.636252480626785E-005
   108.478125000000         1.882098211305536E-005
   108.691875000000        -1.155914789604249E-006
   108.905625000000        -2.263661532518097E-005
   109.119375000000        -4.454088870858101E-005
   109.333125000000        -6.569178498093575E-005
   109.546875000000        -8.487609945273112E-005
   109.760625000000        -1.009102095157230E-004
   109.974375000000        -1.127076989422042E-004
   110.188125000000        -1.193449392425912E-004
   110.401875000000        -1.201207819554564E-004
   110.615625000000        -1.146067357340010E-004
   110.829375000000        -1.026844477631452E-004
   111.043125000000        -8.456795466065513E-005
   111.256875000000        -6.080897431984674E-005
   111.470625000000        -3.228442686701762E-005
   111.684375000000        -1.663429297365627E-007
   111.898125000000         3.412471928369799E-005
   112.111875000000         6.898072825612932E-005
   112.325625000000         1.026789038554994E-004
   112.539375000000         1.334626905060518E-004
   112.753125000000         1.596271264038365E-004
   112.966875000000         1.796045329641660E-004
   113.180625000000         1.920464349415554E-004
   113.394375000000         1.958978065886043E-004
   113.608125000000         1.904601006959118E-004
   113.821875000000         1.754400248907222E-004
   114.035625000000         1.509816475266060E-004
   114.249375000000         1.176801069819811E-004
   114.463125000000         7.657592801843684E-005
   114.676875000000         2.912968661090850E-005
   114.890625000000        -2.282251380146285E-005
   115.104375000000        -7.713160319277630E-005
   115.318125000000        -1.314143461514990E-004
   115.531875000000        -1.831459890166406E-004
   115.745625000000        -2.297638102484708E-004
   115.959375000000        -2.687781333780594E-004
   116.173125000000        -2.978869177786310E-004
   116.386875000000        -3.150896608533332E-004
   116.600625000000        -3.187960413010873E-004
   116.814375000000        -3.079245297759980E-004
   117.028125000000        -2.819861203602885E-004
   117.241875000000        -2.411484283365903E-004
   117.455625000000        -1.862756931884603E-004
   117.669375000000        -1.189407537238509E-004
   117.883125000000        -4.140585007083486E-005
   118.096875000000         4.342983316369257E-005
   118.310625000000         1.321166434065157E-004
   118.524375000000         2.207741555153066E-004
   118.738125000000         3.052415397211272E-004
   118.951875000000         3.812542037889064E-004
   119.165625000000         4.446404523242889E-004
   119.379375000000         4.915301581793041E-004
   119.593125000000         5.185659317952166E-004
   119.806875000000         5.231061343091553E-004
   120.020625000000         5.034084310514587E-004
   120.234375000000         4.587825267357746E-004
   120.448125000000         3.897013357957550E-004
   120.661875000000         2.978611563201583E-004
   120.875625000000         1.861834242073051E-004
   121.089375000000         5.875326655210074E-005
   121.303125000000        -7.930675818147564E-005
   121.516875000000        -2.220258055461039E-004
   121.730625000000        -3.628311296957170E-004
   121.944375000000        -4.948423849808021E-004
   122.158125000000        -6.112011253106849E-004
   122.371875000000        -7.054198985825659E-004
   122.585625000000        -7.717331810934317E-004
   122.799375000000        -8.054311590959791E-004
   123.013125000000        -8.031571768925911E-004
   123.226875000000        -7.631506078533647E-004
   123.440625000000        -6.854189727171154E-004
   123.654375000000        -5.718262621101352E-004
   123.868125000000        -4.260884795392550E-004