  -1.60312500000000        -6.387407380220082E-018
  -1.38937500000000        -6.374692595714708E-018
  -1.17562500000000        -6.240683888388081E-018
 -0.961875000000000        -5.408763082871461E-018
 -0.748125000000000        -1.624646710625034E-018
 -0.534375000000000         1.221426308573775E-017
 -0.320625000000000         5.380581948436981E-017
 -0.106875000000000         1.556862174232032E-016
  0.106875000000000         3.507608088595010E-016
  0.320625000000000         5.998071051059320E-016
  0.534375000000000         6.010462033928037E-016
  0.748125000000000        -5.950440230061450E-016
  0.961875000000000        -5.220740993351027E-015
   1.17562500000000        -1.771442590515017E-014
   1.38937500000000        -4.593473481814531E-014
   1.60312500000000        -1.026315690132145E-013
   1.81687500000000        -2.070988889570666E-013
   2.03062500000000        -3.869410326530627E-013
   2.24437500000000        -6.797920036055762E-013
   2.45812500000000        -1.134847403579576E-012
   2.67187500000000        -1.814029331873292E-012
   2.88562500000000        -2.792594531634772E-012
   3.09937500000000        -4.159164283769349E-012
   3.31312500000000        -6.014866424701801E-012
   3.52687500000000        -8.471855741115218E-012
   3.74062500000000        -1.165108181306784E-011
   3.95437500000000        -1.567958017467966E-011
   4.16812500000000        -2.068756402536416E-011
   4.38187500000000        -2.680560491075381E-011
   4.59562500000000        -3.416239033579680E-011
   4.80937500000000        -4.288314893489544E-011
   5.02312500000000        -5.308928426392301E-011
   5.23687500000000        -6.489915021736008E-011
   5.45062500000000        -7.842992929249570E-011
   5.66437500000000        -9.380040034287314E-011
   5.87812500000000        -1.111339242663927E-010
   6.09187500000000        -1.305613621109294E-010
   6.30562500000000        -1.522229522566341E-010
   6.51937500000000        -1.762684867638700E-010
   6.73312500000000        -2.028555308201351E-010
   6.94687500000000        -2.321451164419225E-010
   7.16062500000000        -2.642952328188713E-010
   7.37437500000000        -2.994523758555898E-010
   7.58812500000000        -3.377422744678339E-010
   7.80187500000000        -3.792606518673763E-010
   8.01562500000000        -4.240652602031469E-010
   8.22937500000000        -4.721705836260785E-010
   8.44312500000000        -5.235458807380962E-010
   8.65687500000000        -5.781172993200202E-010
   8.87062500000000        -6.357737022766073E-010
   9.08437500000000        -6.963759703390378E-010
   9.29812500000000        -7.597683379586790E-010
   9.51187500000000        -8.257903368999670E-010
   9.72562500000000        -8.942875643995955E-010
   9.93937500000000        -9.651199027873927E-010
   10.1531250000000        -1.038165896891346E-009
   10.3668750000000        -1.113322883732960E-009
   10.5806250000000        -1.190502852679520E-009
   10.7943750000000        -1.269625123384694E-009
   11.0081250000000        -1.350607428997664E-009
   11.2218750000000        -1.433356866367610E-009
   11.4356250000000        -1.517763028336754E-009
   11.6493750000000        -1.603694580345964E-009
   11.8631250000000        -1.691000318538287E-009
   12.0768750000000        -1.779514771844355E-009
   12.2906250000000        -1.869067661303822E-009
   12.5043750000000        -1.959495719194440E-009
   12.7181250000000        -2.050654718477283E-009
   12.9318750000000        -2.142429775793375E-009
   13.1456250000000        -2.234741737184255E-009
   13.3593750000000        -2.327548408760401E-009
   13.5731250000000        -2.420840162354628E-009
   13.7868750000000        -2.514630298548577E-009
   14.0006250000000        -2.608941745072472E-009
   14.2143750000000        -2.703792051579880E-009
   14.4281250000000        -2.799179292193886E-009
   14.6418750000000        -2.895071227614115E-009
   14.8556250000000        -2.991399596806438E-009
   15.0693750000000        -3.088060699063531E-009
   15.2831250000000        -3.184922237362832E-009
   15.4968750000000        -3.281835604097245E-009
   15.7106250000000        -3.378651723394712E-009
   15.9243750000000        -3.475237980896895E-009
   16.1381250000000        -3.571493877169770E-009
   16.3518750000000        -3.667363105128690E-009
   16.5656250000000        -3.762840368468581E-009
   16.7793750000000        -3.857972457389366E-009
   16.9931250000000        -3.952853534784136E-009
   17.2068750000000        -4.047616053118373E-009
   17.4206250000000        -4.142418912269302E-009
   17.6343750000000        -4.237435086831562E-009
   17.8481250000000        -4.332840670282352E-009
   18.0618750000000        -4.428806944807685E-009
   18.2756250000000        -4.525496544567846E-009
   18.4893750000000        -4.623063703157572E-009
   18.7031250000000        -4.721658220654383E-009
   18.9168750000000        -4.821431534053665E-009
   19.1306250000000        -4.922543621545595E-009
   19.3443750000000        -5.025168997955779E-009
   19.5581250000000        -5.129500093423599E-009
   19.7718750000000        -5.235747358970275E-009
   19.9856250000000        -5.344135467057343E-009
   20.1993750000000        -5.454896018712888E-009
   20.4131250000000        -5.568257477438105E-009
   20.6268750000000        -5.684433693762079E-009
   20.8406250000000        -5.803612442348426E-009
   21.0543750000000        -5.925945343736313E-009
   21.2681250000000        -6.051540630223499E-009
   21.4818750000000        -6.180459457744283E-009
   21.6956250000000        -6.312716189179925E-009
   21.9093750000000        -6.448282568722263E-009
   22.1231250000000        -6.587095351580557E-009
   22.3368750000000        -6.729066348431161E-009
   22.5506250000000        -6.874093859875921E-009
   22.7643750000000        -7.022074445962880E-009
   22.9781250000000        -7.172913675495860E-009
   23.1918750000000        -7.326535151526995E-009
   23.4056250000000        -7.482886985220930E-009
   23.6193750000000        -7.641945414096589E-009
   23.8331250000000        -7.803715677566788E-009
   24.0468750000000        -7.968230289888651E-009
   24.2606250000000        -8.135545335891691E-009
   24.4743750000000        -8.305735450991043E-009
   24.6881250000000        -8.478888398441579E-009
   24.9018750000000        -8.655099690677004E-009
   25.1156250000000        -8.834467820917183E-009
   25.3293750000000        -9.017090459925989E-009
   25.5431250000000        -9.203061217367230E-009
   25.7568750000000        -9.392466971179417E-009
   25.9706250000000        -9.585385073472802E-009
   26.1843750000000        -9.781879682062399E-009
   26.3981250000000        -9.981996962468915E-009
   26.6118750000000        -1.018575886381827E-008
   26.8256250000000        -1.039315556513835E-008
   27.0393750000000        -1.060413718500171E-008
   27.2531250000000        -1.081860582381295E-008
   27.4668750000000        -1.103640930407260E-008
   27.6806250000000        -1.125733782797272E-008
   27.8943750000000        -1.148112504346041E-008
   28.1081250000000        -1.170745442013167E-008
   28.3218750000000        -1.193597106286297E-008
   28.5356250000000        -1.216629858831463E-008
   28.7493750000000        -1.239805968620180E-008
   28.9631250000000        -1.263089866610869E-008
   29.1768750000000        -1.286450341198393E-008
   29.3906250000000        -1.309862436827452E-008
   29.6043750000000        -1.333308837887595E-008
   29.8181250000000        -1.356780566484366E-008
   30.0318750000000        -1.380276933877132E-008
   30.2456250000000        -1.403804755592984E-008
   30.4593750000000        -1.427376952410378E-008
   30.6731250000000        -1.451010733169125E-008
   30.8868750000000        -1.474725596793994E-008
   31.1006250000000        -1.498541405705472E-008
   31.3143750000000        -1.522476756615810E-008
   31.5281250000000        -1.546547795976236E-008
   31.7418750000000        -1.570767579875414E-008
   31.9556250000000        -1.595145945547377E-008
   32.1693750000000        -1.619689824889256E-008
   32.3831250000000        -1.644403848092191E-008
   32.5968750000000        -1.669291081765558E-008
   32.8106250000000        -1.694353720189200E-008
   33.0243750000000        -1.719593635854802E-008
   33.2381250000000        -1.745012697279707E-008
   33.4518750000000        -1.770612877534620E-008
   33.6656250000000        -1.796396190158144E-008
   33.8793750000000        -1.822364566611810E-008
   34.0931250000000        -1.848519780936978E-008
   34.3068750000000        -1.874863528270180E-008
   34.5206250000000        -1.901397719607394E-008
   34.7343750000000        -1.928125014649092E-008
   34.9481250000000        -1.955049543236423E-008
   35.1618750000000        -1.982177725509977E-008
   35.3756250000000        -2.009519054871973E-008
   35.5893750000000        -2.037086718641918E-008
   35.8031250000000        -2.064897901406356E-008
   36.0168750000000        -2.092973702363555E-008
   36.2306250000000        -2.121338626862382E-008
   36.4443750000000        -2.150019658929297E-008
   36.6581250000000        -2.179045026723076E-008
   36.8718750000000        -2.208442766956236E-008
   37.0856250000000        -2.238239272157239E-008
   37.2993750000000        -2.268457969749428E-008
   37.5131250000000        -2.299118304402660E-008
   37.7268750000000        -2.330235114131577E-008
   37.9406250000000        -2.361818483386985E-008
   38.1543750000000        -2.393874065880560E-008
   38.3681250000000        -2.426403818569915E-008
   38.5818750000000        -2.459407043208313E-008
   38.7956250000000        -2.492881586827757E-008
   39.0093750000000        -2.526825054635947E-008
   39.2231250000000        -2.561235853262318E-008
   39.4368750000000        -2.596113949158522E-008
   39.6506250000000        -2.631461213246187E-008
   39.8643750000000        -2.667281336284062E-008
   40.0781250000000        -2.703579315868695E-008
   40.2918750000000        -2.740360573029115E-008
   40.5056250000000        -2.777629837840877E-008
   40.7193750000000        -2.815389956450995E-008
   40.9331250000000        -2.853640796960462E-008
   41.1468750000000        -2.892378429643376E-008
   41.3606250000000        -2.931594718579016E-008
   41.5743750000000        -2.971277414730543E-008
   41.7881250000000        -3.011410780125817E-008
   42.0018750000000        -3.051976676082809E-008
   42.2156250000000        -3.092956011431952E-008
   42.4293750000000        -3.134330361644799E-008
   42.6431250000000        -3.176083545113427E-008
   42.8568750000000        -3.218202953278772E-008
   43.0706250000000        -3.260680441227369E-008
   43.2843750000000        -3.303512658886213E-008
   43.4981250000000        -3.346700770869746E-008
   43.7118750000000        -3.390249606839314E-008
   43.9256250000000        -3.434166364859563E-008
   44.1393750000000        -3.478459057316209E-008
   44.3531250000000        -3.523134914396053E-008
   44.5668750000000        -3.568198983840324E-008
   44.7806250000000        -3.613653103891005E-008
   44.9943750000000        -3.659495369624349E-008
   45.2081250000000        -3.705720149739608E-008
   45.4218750000000        -3.752318598802896E-008
   45.6356250000000        -3.799279544832321E-008
   45.8493750000000        -3.846590576395573E-008
   46.0631250000000        -3.894239141122248E-008
   46.2768750000000        -3.942213476079184E-008
   46.4906250000000        -3.990503253504319E-008
   46.7043750000000        -4.039099870824935E-008
   46.9181250000000        -4.087996418134841E-008
   47.1318750000000        -4.137187419509357E-008
   47.3456250000000        -4.186668485775692E-008
   47.5593750000000        -4.236436049658036E-008
   47.7731250000000        -4.286487325199844E-008
   47.9868750000000        -4.336820591646923E-008
   48.2006250000000        -4.387435820748304E-008
   48.4143750000000        -4.438335591262092E-008
   48.6281250000000        -4.489526153474672E-008
   48.8418750000000        -4.541018455975755E-008
   49.0556250000000        -4.592828915280015E-008
   49.2693750000000        -4.644979728739416E-008
   49.4831250000000        -4.697498599556988E-008
   49.6968750000000        -4.750417811931187E-008
   49.9106250000000        -4.803772697426273E-008
   50.1243750000000        -4.857599648220287E-008
   50.3381250000000        -4.911933892844815E-008
   50.5518750000000        -4.966807322998645E-008
   50.7656250000000        -5.022246637340381E-008
   50.9793750000000        -5.078272057044563E-008
   51.1931250000000        -5.134896782010097E-008
   51.4068750000000        -5.192127240939244E-008
   51.6206250000000        -5.249964092357354E-008
   51.8343750000000        -5.308403808108564E-008
   52.0481250000000        -5.367440601266842E-008
   52.2618750000000        -5.427068418029576E-008
   52.4756250000000        -5.487282705991720E-008
   52.6893750000000        -5.548081732706681E-008
   52.9031250000000        -5.609467293060384E-008
   53.1168750000000        -5.671444772160915E-008
   53.3306250000000        -5.734022631910055E-008
   53.5443750000000        -5.797211485359777E-008
   53.7581250000000        -5.861022973336319E-008
   53.9718750000000        -5.925468717085574E-008
   54.1856250000000        -5.990559547821513E-008
   54.3993750000000        -6.056305181363614E-008
   54.6131250000000        -6.122714386424683E-008
   54.8268750000000        -6.189795600445602E-008
   55.0406250000000        -6.257557819562423E-008
   55.2543750000000        -6.326011545693184E-008
   55.4681250000000        -6.395169503301633E-008
   55.6818750000000        -6.465046875026983E-008
   55.8956250000000        -6.535660876857537E-008
   56.1093750000000        -6.607029589651023E-008
   56.3231250000000        -6.679170115303779E-008
   56.5368750000000        -6.752096257147162E-008
   56.7506250000000        -6.825816031306732E-008
   56.9643750000000        -6.900329419424817E-008
   57.1781250000000        -6.975626762974295E-008
   57.3918750000000        -7.051688154810627E-008
   57.6056250000000        -7.128484077007792E-008
   57.8193750000000        -7.205977382633446E-008
   58.0331250000000        -7.284126489452689E-008
   58.2468750000000        -7.362889514506701E-008
   58.4606250000000        -7.442228886484202E-008
   58.6743750000000        -7.522115858267005E-008
   58.8881250000000        -7.602534310992040E-008
   59.1018750000000        -7.683483287159604E-008
   59.3156250000000        -7.764977800124620E-008
   59.5293750000000        -7.847047659100072E-008
   59.7431250000000        -7.929734244747702E-008
   59.9568750000000        -8.013085490873132E-008
   60.1706250000000        -8.097149520307836E-008
   60.3843750000000        -8.181967589195395E-008
   60.5981250000000        -8.267567178197455E-008
   60.8118750000000        -8.353956084817121E-008
   61.0256250000000        -8.441118422519220E-008
   61.2393750000000        -8.529013203458678E-008
   61.4531250000000        -8.617576082501311E-008
   61.6668750000000        -8.706724463162336E-008
   61.8806250000000        -8.796365834624826E-008
   62.0943750000000        -8.886408829190449E-008
   62.3081250000000        -8.976776060215230E-008
   62.5218750000000        -9.067417460239331E-008
   62.7356250000000        -9.158322566985088E-008
   62.9493750000000        -9.249530045120168E-008
   63.1631250000000        -9.341132776622024E-008
   63.3768750000000        -9.433277086505155E-008
   63.5906250000000        -9.526155130122817E-008
   63.8043750000000        -9.619990134580030E-008
   64.0181250000000        -9.715015044317538E-008
   64.2318750000000        -9.811446038357304E-008
   64.4456250000000        -9.909453341626521E-008
   64.6593750000000        -1.000913253335322E-007
   64.8731250000000        -1.011048011103221E-007
   65.0868750000000        -1.021337720759532E-007
   65.3006250000000        -1.031758500360540E-007
   65.5143750000000        -1.042275452162405E-007
   65.7281250000000        -1.052845209410697E-007
   65.9418750000000        -1.063419999274887E-007
   66.1556250000000        -1.073952967163334E-007
   66.3693750000000        -1.084404297828037E-007
   66.5831250000000        -1.094747493461498E-007
   66.7968750000000        -1.104975042746766E-007
   67.0106250000000        -1.115102667846213E-007
   67.2243750000000        -1.125171393098992E-007
   67.4381250000000        -1.135246838849553E-007
   67.6518750000000        -1.145415401131920E-007
   67.8656250000000        -1.155777322263721E-007
   68.0793750000000        -1.166437043258369E-007
   68.2931250000000        -1.177491622205062E-007
   68.5068750000000        -1.189018348230101E-007
   68.7206250000000        -1.201062928280190E-007
   68.9343750000000        -1.213629735079787E-007
   69.1481250000000        -1.226675543576589E-007
   69.3618750000000        -1.240107940814154E-007
   69.5756250000000        -1.253789180437598E-007
   69.7893750000000        -1.267545697863736E-007
   70.0031250000000        -1.281182863905058E-007
   70.2168750000000        -1.294503897318887E-007
   70.4306250000000        -1.307331264324674E-007
   70.6443750000000        -1.319528436276471E-007
   70.8581250000000        -1.331019627271527E-007
   71.0718750000000        -1.341805137611961E-007
   71.2856250000000        -1.351970205284185E-007
   71.4993750000000        -1.361685803628461E-007
   71.7131250000000        -1.371200577437715E-007
   71.9268750000000        -1.380824004780944E-007
   72.1406250000000        -1.390901817285561E-007
   72.3543750000000        -1.401785594773198E-007
   72.5681250000000        -1.413799174815760E-007
   72.7818750000000        -1.427204986185434E-007
   72.9956250000000        -1.442173571557327E-007
   73.2093750000000        -1.458759380261225E-007
   73.4231250000000        -1.476885400693084E-007
   73.6368750000000        -1.496338419896214E-007
   73.8506250000000        -1.516775734840760E-007
   74.0643750000000        -1.537743104429417E-007
   74.2781250000000        -1.558702745131380E-007
   74.4918750000000        -1.579069347096023E-007
   74.7056250000000        -1.598251505484655E-007
   74.9193750000000        -1.615695671106113E-007
   75.1331250000000        -1.630929732602084E-007
   75.3468750000000        -1.643603599516708E-007
   75.5606250000000        -1.653524582618963E-007
   75.7743750000000        -1.660685860431315E-007
   75.9881250000000        -1.665286759312798E-007
   76.2018750000000        -1.667743869412137E-007
   76.4156250000000        -1.668692109710375E-007
   76.6293750000000        -1.668974741505029E-007
   76.8431250000000        -1.669621073856685E-007
   77.0568750000000        -1.671810328564083E-007
   77.2706250000000        -1.676820015441076E-007
   77.4843750000000        -1.685957401814972E-007
   77.6981250000000        -1.700473426160469E-007
   77.9118750000000        -1.721459847199181E-007
   78.1256250000000        -1.749732554780477E-007
   78.3393750000000        -1.785706736157967E-007
   78.5531250000000        -1.829272744001217E-007
   78.7668750000000        -1.879684690655708E-007
   78.9806250000000        -1.935476501647099E-007
   79.1943750000000        -1.994421851046088E-007
   79.4081250000000        -2.053554492292258E-007
   79.6218750000000        -2.109263524989549E-007
   79.8356250000000        -2.157473769609849E-007
   80.0493750000000        -2.193914608548770E-007
   80.2631250000000        -2.214471629090763E-007
   80.4768750000000        -2.215604780015028E-007
   80.6906250000000        -2.194805462792353E-007
   80.9043750000000        -2.151054245799532E-007
   81.1181250000000        -2.085232126014662E-007
   81.3318750000000        -2.000432928438182E-007
   81.5456250000000        -1.902123848479569E-007
   81.7593750000000        -1.798106323658822E-007
   81.9731250000000        -1.698240890096812E-007
   82.1868750000000        -1.613917321413813E-007
   82.4006250000000        -1.557274309336838E-007
   82.6143750000000        -1.540199650414044E-007
   82.8281250000000        -1.573170053213942E-007
   83.0418750000000        -1.664016489845631E-007
   83.2556250000000        -1.816723375376046E-007
   83.4693750000000        -2.030384699045169E-007
   83.6831250000000        -2.298444808856119E-007
   83.8968750000000        -2.608343866797933E-007
   84.1106250000000        -2.941667016449885E-007
   84.3243750000000        -3.274862310438024E-007
   84.5381250000000        -3.580547067011989E-007
   84.7518750000000        -3.829368599091056E-007
   84.9656250000000        -3.992327460432390E-007
   85.1793750000000        -4.043414689259700E-007
   85.3931250000000        -3.962364713041819E-007
   85.6068750000000        -3.737288316067089E-007
   85.8206250000000        -3.366930449415853E-007
   86.0343750000000        -2.862299603966964E-007
   86.2481250000000        -2.247441212785044E-007
   86.4618750000000        -1.559177263545614E-007
   86.6756250000000        -8.457058899964198E-008
   86.8893750000000        -1.640437811265121E-008
   87.1031250000000         4.236056286990349E-008
   87.3168750000000         8.543720892815241E-008
   87.5306250000000         1.069843359046889E-007
   87.7443750000000         1.021429805054119E-007
   87.9581250000000         6.755455917817413E-008
   88.1718750000000         1.815614184673853E-009
   88.3856250000000        -9.417497393358927E-008
   88.5993750000000        -2.170158034732048E-007
   88.8131250000000        -3.607809411923626E-007
   89.0268750000000        -5.171956171201535E-007
   89.2406250000000        -6.760150210504066E-007
   89.4543750000000        -8.255959257987590E-007
   89.6681250000000        -9.536348245544187E-007
   89.8818750000000        -1.048031129152415E-006
   90.0956250000000        -1.097820982571745E-006
   90.3093750000000        -1.094117532125002E-006
   90.5231250000000        -1.030988016694196E-006
   90.7368750000000        -9.061973830028954E-007
   90.9506250000000        -7.217526556904906E-007
   91.1643750000000        -4.841918628834767E-007
   91.3781250000000        -2.045755076978896E-007
   91.5918750000000         1.018434247876130E-007
   91.8056250000000         4.162742179381759E-007
   92.0193750000000         7.173490923988091E-007
   92.2331250000000         9.823488398097382E-007
   92.4468750000000         1.188631826963741E-006
   92.6606250000000         1.315187002867828E-006
   92.8743750000000         1.344217871958104E-006
   93.0881250000000         1.262655844847695E-006
   93.3018750000000         1.063498672386091E-006
   93.5156250000000         7.468732171630453E-007
   93.7293750000000         3.207316907749761E-007
   93.9431250000000        -1.988935843163083E-007
   94.1568750000000        -7.881304375177775E-007
   94.3706250000000        -1.416029724506478E-006
   94.5843750000000        -2.045849025927727E-006
   94.7981250000000        -2.636823973169733E-006
   95.0118750000000        -3.146362107862337E-006
   95.2256250000000        -3.532563469914737E-006
   95.4393750000000        -3.756944310481072E-006
   95.6531250000000        -3.787217167652118E-006
   95.8668750000000        -3.599963670994891E-006
   96.0806250000000        -3.183027349660871E-006
   96.2943750000000        -2.537453653551654E-006
   96.5081250000000        -1.678814271305501E-006
   96.7218750000000        -6.377731282888579E-007
   96.9356250000000         5.402178547313097E-007
   97.1493750000000         1.796164677070917E-006
   97.3631250000000         3.059741257151024E-006
   97.5768750000000         4.252430259398720E-006
   97.7906250000000         5.291501722255092E-006
   98.0043750000000         6.094675688597754E-006
   98.2181250000000         6.585256825429734E-006
   98.4318750000000         6.697477212370847E-006
   98.6456250000000         6.381742013110896E-006
   98.8593750000000         5.609445391833801E-006
   99.0731250000000         4.377014142072304E-006
   99.2868750000000         2.708846696810624E-006
   99.5006250000000         6.588471601389539E-007
   99.7143750000000        -1.689691783221343E-006
   99.9281250000000        -4.226027659547163E-006
   100.141875000000        -6.815804739893817E-006
   100.355625000000        -9.306754714129817E-006
   100.569375000000        -1.153610843517159E-005
   100.783125000000        -1.333944287336544E-005
   100.996875000000        -1.456056874578361E-005
   101.210625000000        -1.506195771258821E-005
   101.424375000000        -1.473512163504102E-005
   101.638125000000        -1.351029781114184E-005
   101.851875000000        -1.136477001141036E-005
   102.065625000000        -8.329170680908090E-006
   102.279375000000        -4.491167997057917E-006
   102.493125000000         3.956710931700025E-009
   102.706875000000         4.956192378236058E-006
   102.920625000000         1.011731376956459E-005
   103.134375000000         1.520099179139898E-005
   103.348125000000         1.989623400469547E-005
   103.561875000000         2.388365786233694E-005
   103.775625000000         2.685387476585663E-005
   103.989375000000         2.852706225812245E-005
   104.203125000000         2.867263965395015E-005
   104.416875000000         2.712785322546204E-005
   104.630625000000         2.381403269136580E-005
   104.844375000000         1.874931012077453E-005
   105.058125000000         1.205670039202658E-005
   105.271875000000         3.966629308438517E-006
   105.485625000000        -5.186743509719637E-006
   105.699375000000        -1.497573492642588E-005
   105.913125000000        -2.489583619719908E-005
   106.126875000000        -3.438845045384457E-005
   106.340625000000        -4.286881374746982E-005
   106.554375000000        -4.975785573025109E-005
   106.768125000000        -5.451641464370433E-005
   106.981875000000        -5.667995178933446E-005
   107.195625000000        -5.589173575353051E-005
   107.409375000000        -5.193240449499373E-005
   107.623125000000        -4.474387605984221E-005
   107.836875000000        -3.444577091969560E-005
   108.050625000000        -2.134282734355528E-005
   108.264375000000        -5.922223980850515E-006
   108.478125000000         1.115974905038564E-005
   108.691875000000         2.910163510969655E-005
   108.905625000000         4.699070850594056E-005
   109.119375000000         6.384553616980392E-005
   109.333125000000         7.866533238565538E-005
   109.546875000000         9.048373253177629E-005
   109.760625000000         9.842422326524514E-005
   109.974375000000         1.017542211292621E-004
   110.188125000000         9.993470989207742E-005
   110.401875000000         9.266244026677936E-005
   110.615625000000         7.990196472716958E-005
   110.829375000000         6.190521487568803E-005
   111.043125000000         3.921690887257815E-005
   111.256875000000         1.266477230348043E-005
   111.470625000000        -1.666566929387765E-005
   111.684375000000        -4.747115608813959E-005
   111.898125000000        -7.828424293491467E-005
   112.111875000000        -1.075382033495419E-004
   112.325625000000        -1.336404989595794E-004
   112.539375000000        -1.550514917139314E-004
   112.753125000000        -1.703646992603344E-004
   112.966875000000        -1.783846930517770E-004
   113.180625000000        -1.781987241113365E-004
   113.394375000000        -1.692383336019491E-004
   113.608125000000        -1.513275559637221E-004
   113.821875000000        -1.247148348810433E-004
   114.035625000000        -9.008642353613066E-005
   114.249375000000        -4.855980226102199E-005
   114.463125000000        -1.656487223006903E-006
   114.676875000000         4.874551017623810E-005
   114.890625000000         1.004784156476542E-004
   115.104375000000         1.511685818595883E-004
   115.318125000000         1.983346774325223E-004
   115.531875000000         2.394965747307439E-004
   115.745625000000         2.722907034901599E-004
   115.959375000000         2.945871391628953E-004
   116.173125000000         3.046033539010872E-004
   116.386875000000         3.010093946349591E-004
   116.600625000000         2.830192841609990E-004
   116.814375000000         2.504636814312811E-004
   117.028125000000         2.038392956153444E-004
   117.241875000000         1.443312283221341E-004
   117.455625000000         7.380531541487643E-005
   117.669375000000        -5.231359280699607E-006
   117.883125000000        -8.970232550696164E-005
   118.096875000000        -1.760650862049758E-004
   118.310625000000        -2.604435785412095E-004
   118.524375000000        -3.387857852995525E-004
   118.738125000000        -4.070410278681720E-004
   118.951875000000        -4.613500706508769E-004
   119.165625000000        -4.982399662882824E-004
   119.379375000000        -5.148146565094153E-004
   119.593125000000        -5.089317946128595E-004
   119.806875000000        -4.793561414481408E-004
   120.020625000000        -4.258802594188380E-004
   120.234375000000        -3.494041181201979E-004
   120.448125000000        -2.519666332836193E-004
   120.661875000000        -1.367240597595347E-004
   120.875625000000        -7.872489248016379E-006
   121.089375000000         1.294856273685736E-004
   121.303125000000         2.695281256527417E-004
   121.516875000000         4.059471725056839E-004
   121.730625000000         5.322220684524175E-004
   121.944375000000         6.419195502375378E-004
   122.158125000000         7.290081473676209E-004
   122.371875000000         7.881715380833140E-004
   122.585625000000         8.151049549639246E-004
   122.799375000000         8.067786063002336E-004
   123.013125000000         7.616528630691588E-004
   123.226875000000         6.798316213857151E-004
   123.440625000000         5.631427438831460E-004
   123.654375000000         4.151377160974187E-004
   123.868125000000         2.410064824830003E-004