  -1.60312500000000        -2.418850952675961E-024
  -1.38937500000000        -1.790095764079574E-023
  -1.17562500000000        -3.915742709401130E-023
 -0.961875000000000        -4.803676233295295E-023
 -0.748125000000000        -1.402059677621614E-023
 -0.534375000000000         1.308109997520929E-022
 -0.320625000000000         5.809762012486699E-022
 -0.106875000000000         1.928282863128699E-021
  0.106875000000000         5.520813074719899E-021
  0.320625000000000         1.479624241375865E-020
  0.534375000000000         4.016956017829129E-020
  0.748125000000000         1.063268499820098E-019
  0.961875000000000         2.707717928482228E-019
   1.17562500000000         6.583301619946048E-019
   1.38937500000000         1.514069745718154E-018
   1.60312500000000         3.264374603289397E-018
   1.81687500000000         6.600153815254148E-018
   2.03062500000000         1.257957213450780E-017
   2.24437500000000         2.262107291977180E-017
   2.45812500000000         3.854417352129697E-017
   2.67187500000000         6.252781745910624E-017
   2.88562500000000         9.693180392089616E-017
   3.09937500000000         1.439709277201173E-016
   3.31312500000000         2.054925798275179E-016
   3.52687500000000         2.824670849173663E-016
   3.74062500000000         3.745263967228026E-016
   3.95437500000000         4.795297628332421E-016
   4.16812500000000         5.930791279938306E-016
   4.38187500000000         7.085396946773007E-016
   4.59562500000000         8.170756655260396E-016
   4.80937500000000         9.081307158628037E-016
   5.02312500000000         9.703147684891936E-016
   5.23687500000000         9.925523800180723E-016
   5.45062500000000         9.658744313097338E-016
   5.66437500000000         8.849781274776383E-016
   5.87812500000000         7.501683003621349E-016
   6.09187500000000         5.686491348975927E-016
   6.30562500000000         3.554061138361437E-016
   6.51937500000000         1.332754473739701E-016
   6.73312500000000        -6.803921606943542E-017
   6.94687500000000        -2.140774877366478E-016
   7.16062500000000        -2.684497351951420E-016
   7.37437500000000        -1.966385175696172E-016
   7.58812500000000         2.985189380761222E-017
   7.80187500000000         4.294745600580722E-016
   8.01562500000000         1.007372943061450E-015
   8.22937500000000         1.753129039420819E-015
   8.44312500000000         2.640176709791822E-015
   8.65687500000000         3.627068255307734E-015
   8.87062500000000         4.660662978955109E-015
   9.08437500000000         5.680976982556189E-015
   9.29812500000000         6.627002976063622E-015
   9.51187500000000         7.443225849060491E-015
   9.72562500000000         8.085841842698672E-015
   9.93937500000000         8.527819996834772E-015
   10.1531250000000         8.761980998460590E-015
   10.3668750000000         8.801768526282210E-015
   10.5806250000000         8.679823029166527E-015
   10.7943750000000         8.443836341200675E-015
   11.0081250000000         8.150766671957298E-015
   11.2218750000000         7.859988324477516E-015
   11.4356250000000         7.626034539700585E-015
   11.6493750000000         7.492297434497685E-015
   11.8631250000000         7.486165108673605E-015
   12.0768750000000         7.616459314710353E-015
   12.2906250000000         7.873391034367174E-015
   12.5043750000000         8.231332602427719E-015
   12.7181250000000         8.653649572027485E-015
   12.9318750000000         9.099157121283400E-015
   13.1456250000000         9.529004719634130E-015
   13.3593750000000         9.913248960578272E-015
   13.5731250000000         1.023594978577191E-014
   13.7868750000000         1.049822153248255E-014
   14.0006250000000         1.071864295048950E-014
   14.2143750000000         1.093118197243729E-014
   14.4281250000000         1.118065689034580E-014
   14.6418750000000         1.151660581422328E-014
   14.8556250000000         1.198628820793461E-014
   15.0693750000000         1.262780270908549E-014
   15.2831250000000         1.346427436062716E-014
   15.4968750000000         1.449980931170578E-014
   15.7106250000000         1.571791734459087E-014
   15.9243750000000         1.708237833446774E-014
   16.1381250000000         1.854046775608248E-014
   16.3518750000000         2.002804232015552E-014
   16.5656250000000         2.147597373327644E-014
   16.7793750000000         2.281708130829405E-014
   16.9931250000000         2.399270444490727E-014
   17.2068750000000         2.495810743767755E-014
   17.4206250000000         2.568629448217948E-014
   17.6343750000000         2.617002419891696E-014
   17.8481250000000         2.642153805286402E-014
   18.0618750000000         2.647082040492251E-014
   18.2756250000000         2.636239312740340E-014
   18.4893750000000         2.615111437983980E-014
   18.7031250000000         2.589777027311680E-014
   18.9168750000000         2.566471067894762E-014
   19.1306250000000         2.551206940070002E-014
   19.3443750000000         2.549448556110712E-014
   19.5581250000000         2.565889146540273E-014
   19.7718750000000         2.604285423559403E-014
   19.9856250000000         2.667363557945180E-014
   20.1993750000000         2.756761352531728E-014
   20.4131250000000         2.872994921413125E-014
   20.6268750000000         3.015432822206531E-014
   20.8406250000000         3.182269901891457E-014
   21.0543750000000         3.370540833470032E-014
   21.2681250000000         3.576135357966243E-014
   21.4818750000000         3.793867135750407E-014
   21.6956250000000         4.017642940995264E-014
   21.9093750000000         4.240694376836718E-014
   22.1231250000000         4.455922181034437E-014
   22.3368750000000         4.656326334693018E-014
   22.5506250000000         4.835483129767246E-014
   22.7643750000000         4.988032371803968E-014
   22.9781250000000         5.110128149868948E-014
   23.1918750000000         5.199781985403816E-014
   23.4056250000000         5.257077606963818E-014
   23.6193750000000         5.284179702355694E-014
   23.8331250000000         5.285169120785251E-014
   24.0468750000000         5.265690008922479E-014
   24.2606250000000         5.232445052084643E-014
   24.4743750000000         5.192607606514132E-014
   24.6881250000000         5.153187043753091E-014
   24.9018750000000         5.120450223707029E-014
   25.1156250000000         5.099453270290051E-014
   25.3293750000000         5.093738141474036E-014
   25.5431250000000         5.105220881690891E-014
   25.7568750000000         5.134257533312957E-014
   25.9706250000000         5.179876364358026E-014
   26.1843750000000         5.240150899059854E-014
   26.3981250000000         5.312598714097959E-014
   26.6118750000000         5.394587642835117E-014
   26.8256250000000         5.483658914854930E-014
   27.0393750000000         5.577742063643073E-014
   27.2531250000000         5.675229182381765E-014
   27.4668750000000         5.774913882314927E-014
   27.6806250000000         5.875810673051666E-014
   27.8943750000000         5.976918253960430E-014
   28.1081250000000         6.076978700157123E-014
   28.3218750000000         6.174254540830255E-014
   28.5356250000000         6.266439048085216E-014
   28.7493750000000         6.350684957524513E-014
   28.9631250000000         6.423757883883796E-014
   29.1768750000000         6.482350017968752E-014
   29.3906250000000         6.523467728580900E-014
   29.6043750000000         6.544875532542680E-014
   29.8181250000000         6.545509074448340E-014
   30.0318750000000         6.525796431981472E-014
   30.2456250000000         6.487841866322457E-014
   30.4593750000000         6.435425670664389E-014
   30.6731250000000         6.373791401272840E-014
   30.8868750000000         6.309245941997935E-014
   31.1006250000000         6.248633392260776E-014
   31.3143750000000         6.198705404672798E-014
   31.5281250000000         6.165499486447193E-014
   31.7418750000000         6.153790173632595E-014
   31.9556250000000         6.166672859336532E-014
   32.1693750000000         6.205371748455398E-014
   32.3831250000000         6.269266434191605E-014
   32.5968750000000         6.356158993002609E-014
   32.8106250000000         6.462712444182409E-014
   33.0243750000000         6.585011951181485E-014
   33.2381250000000         6.719163926326539E-014
   33.4518750000000         6.861813757425048E-014
   33.6656250000000         7.010528998088592E-014
   33.8793750000000         7.163951494288671E-014
   34.0931250000000         7.321733880647341E-014
   34.3068750000000         7.484218674071689E-014
   34.5206250000000         7.651948920378642E-014
   34.7343750000000         7.825074761744749E-014
   34.9481250000000         8.002784137580516E-014
   35.1618750000000         8.182854511113755E-014
   35.3756250000000         8.361450748337962E-014
   35.5893750000000         8.533194926605003E-014
   35.8031250000000         8.691584186594992E-014
   36.0168750000000         8.829659225357240E-014
   36.2306250000000         8.940883496707561E-014
   36.4443750000000         9.020094357346665E-014
   36.6581250000000         9.064351839241380E-014
   36.8718750000000         9.073594720796925E-014
   37.0856250000000         9.050901621793234E-014
   37.2993750000000         9.002385646972901E-014
   37.5131250000000         8.936637998328973E-014
   37.7268750000000         8.863836825732829E-014
   37.9406250000000         8.794630662143792E-014
   38.1543750000000         8.738928866062098E-014
   38.3681250000000         8.704826526704586E-014
   38.5818750000000         8.697752582269356E-014
   38.7956250000000         8.720019123955185E-014
   39.0093750000000         8.770796469441723E-014
   39.2231250000000         8.846504898506226E-014
   39.4368750000000         8.941521206749482E-014
   39.6506250000000         9.049108306079609E-014
   39.8643750000000         9.162365360908773E-014
   40.0781250000000         9.275041407464609E-014
   40.2918750000000         9.382094544018100E-014
   40.5056250000000         9.479936410721266E-014
   40.7193750000000         9.566353149434537E-014
   40.9331250000000         9.640169063393595E-014
   41.1468750000000         9.700767748163320E-014
   41.3606250000000         9.747610141855439E-014
   41.5743750000000         9.779881972911585E-014
   41.7881250000000         9.796389909048553E-014
   42.0018750000000         9.795734183276500E-014
   42.2156250000000         9.776747083497376E-014
   42.4293750000000         9.739072971051873E-014
   42.6431250000000         9.683820350288640E-014
   42.8568750000000         9.614039914903785E-014
   43.0706250000000         9.534935133352682E-014
   43.2843750000000         9.453681134229139E-014
   43.4981250000000         9.378809383484895E-014
   43.7118750000000         9.319213619735449E-014
   43.9256250000000         9.282880964666851E-014
   44.1393750000000         9.275563797488074E-014
   44.3531250000000         9.299590960821674E-014
   44.5668750000000         9.353046854895432E-014
   44.7806250000000         9.429485148291915E-014
   44.9943750000000         9.518281875294142E-014
   45.2081250000000         9.605618755887307E-014
   45.4218750000000         9.675981271639030E-014
   45.6356250000000         9.714021055227776E-014
   45.8493750000000         9.706489719327747E-014
   46.0631250000000         9.643999760088665E-014
   46.2768750000000         9.522347384889089E-014
   46.4906250000000         9.343214583421467E-014
   46.7043750000000         9.114141790946657E-014
   46.9181250000000         8.847773082408470E-014
   47.1318750000000         8.560451276366144E-014
   47.3456250000000         8.270397372059617E-014
   47.5593750000000         7.995687478372734E-014
   47.7731250000000         7.752319573633468E-014
   47.9868750000000         7.552587889933140E-014
   48.2006250000000         7.403975403014356E-014
   48.4143750000000         7.308643167718573E-014
   48.6281250000000         7.263578039410376E-014
   48.8418750000000         7.261270693957285E-014
   49.0556250000000         7.290833235238915E-014
   49.2693750000000         7.339351675623917E-014
   49.4831250000000         7.393300379656775E-014
   49.6968750000000         7.439832616577345E-014
   49.9106250000000         7.467794921481397E-014
   50.1243750000000         7.468408120497275E-014
   50.3381250000000         7.435608030613846E-014
   50.5518750000000         7.366073715296914E-014
   50.7656250000000         7.259013667087061E-014
   50.9793750000000         7.115838189246245E-014
   51.1931250000000         6.939779573244161E-014
   51.4068750000000         6.735582197418209E-014
   51.6206250000000         6.509233069155480E-014
   51.8343750000000         6.267775608857347E-014
   52.0481250000000         6.019138113527873E-014
   52.2618750000000         5.771898751184130E-014
   52.4756250000000         5.534938905499712E-014
   52.6893750000000         5.316893924646570E-014
   52.9031250000000         5.125431087462546E-014
   53.1168750000000         4.966381127726145E-014
   53.3306250000000         4.842831672775723E-014
   53.5443750000000         4.754325690612081E-014
   53.7581250000000         4.696370348570058E-014
   53.9718750000000         4.660397047762345E-014
   54.1856250000000         4.634322347942481E-014
   54.3993750000000         4.603730529892600E-014
   54.6131250000000         4.553665408097639E-014
   54.8268750000000         4.470794303839212E-014
   55.0406250000000         4.345706975440898E-014
   55.2543750000000         4.174949648429536E-014
   55.4681250000000         3.962420176780577E-014
   55.6818750000000         3.719726375040902E-014
   55.8956250000000         3.465275988863901E-014
   56.1093750000000         3.221989462702039E-014
   56.3231250000000         3.013760039930043E-014
   56.5368750000000         2.861018361165641E-014
   56.7506250000000         2.775977479533525E-014
   56.9643750000000         2.758310406053183E-014
   57.1781250000000         2.792042813915284E-014
   57.3918750000000         2.844477535496258E-014
   57.6056250000000         2.867715182738642E-014
   57.8193750000000         2.803057470078600E-014
   58.0331250000000         2.588209619249500E-014
   58.2468750000000         2.166649511997234E-014
   58.4606250000000         1.498151825873688E-014
   58.6743750000000         5.691019920903875E-015
   58.8881250000000        -5.990549585255430E-015
   59.1018750000000        -1.944861247748244E-014
   59.3156250000000        -3.366833652819531E-014
   59.5293750000000        -4.729261350910742E-014
   59.7431250000000        -5.874204513555679E-014
   59.9568750000000        -6.639082196869017E-014
   60.1706250000000        -6.878399512847854E-014
   60.3843750000000        -6.487354815610257E-014
   60.5981250000000        -5.424356294041563E-014
   60.8118750000000        -3.729178770787372E-014
   61.0256250000000        -1.533489439911524E-014
   61.2393750000000         9.390230462586212E-015
   61.4531250000000         3.384703079930198E-014
   61.6668750000000         5.444710245243641E-014
   61.8806250000000         6.741341860792614E-014
   62.0943750000000         6.923099122892592E-014
   62.3081250000000         5.714076863177450E-014
   62.5218750000000         2.961958785229078E-014
   62.7356250000000        -1.321721986195564E-014
   62.9493750000000        -6.935462815242010E-014
   63.1631250000000        -1.348133037553703E-013
   63.3768750000000        -2.038202370034865E-013
   63.5906250000000        -2.692298937115451E-013
   63.8043750000000        -3.231818248687308E-013
   64.0181250000000        -3.579487009427243E-013
   64.2318750000000        -3.668989287319813E-013
   64.4456250000000        -3.454728173938652E-013
   64.6593750000000        -2.920549339210045E-013
   64.8731250000000        -2.086215765753771E-013
   65.0868750000000        -1.010530917013630E-013
   65.3006250000000         2.097507165825668E-014
   65.5143750000000         1.445689732110683E-013
   65.7281250000000         2.546580552121497E-013
   65.9418750000000         3.354444061762758E-013
   66.1556250000000         3.721460015514108E-013
   66.3693750000000         3.528714285079436E-013
   66.5831250000000         2.704275163149030E-013
   66.7968750000000         1.238434966505059E-013
   67.0106250000000        -8.060013979040633E-014
   67.2243750000000        -3.290196842679858E-013
   67.4381250000000        -6.003828398876515E-013
   67.6518750000000        -8.678248323103371E-013
   67.8656250000000        -1.100794593312041E-012
   68.0793750000000        -1.267904870809035E-012
   68.2931250000000        -1.340269989865131E-012
   68.5068750000000        -1.295038526442534E-012
   68.7206250000000        -1.118773034476939E-012
   68.9343750000000        -8.103042385239172E-013
   69.1481250000000        -3.826978756950728E-013
   69.3618750000000         1.359807783641682E-013
   69.5756250000000         7.033378216853562E-013
   69.7893750000000         1.264878124817470E-012
   70.0031250000000         1.757775818998553E-012
   70.2168750000000         2.116028594087878E-012
   70.4306250000000         2.276689539882408E-012
   70.6443750000000         2.186735071994000E-012
   70.8581250000000         1.810015323295310E-012
   71.0718750000000         1.133654292177328E-012
   71.2856250000000         1.732299891903453E-013
   71.4993750000000        -1.023923481965757E-012
   71.7131250000000        -2.377885735502324E-012
   71.9268750000000        -3.778266120398988E-012
   72.1406250000000        -5.089565893677980E-012
   72.3543750000000        -6.159861543002404E-012
   72.5681250000000        -6.832613175501260E-012
   72.7818750000000        -6.961098266112842E-012
   72.9956250000000        -6.424646732176743E-012
   73.2093750000000        -5.145532438006918E-012
   73.4231250000000        -3.105083417574478E-012
   73.6368750000000        -3.573412460707153E-013
   73.8506250000000         2.961532475111484E-012
   74.0643750000000         6.629901919616763E-012
   74.2781250000000         1.034497913352822E-011
   74.4918750000000         1.373606782839101E-011
   74.7056250000000         1.638738017740340E-011
   74.9193750000000         1.787026972931602E-011
   75.1331250000000         1.778373302965064E-011
   75.3468750000000         1.580091784252442E-011
   75.5606250000000         1.171822830704871E-011
   75.7743750000000         5.502554975461934E-012
   75.9881250000000        -2.668678147697514E-012
   76.2018750000000        -1.238041733305680E-011
   76.4156250000000        -2.297153970570555E-011
   76.6293750000000        -3.355007738337670E-011
   76.8431250000000        -4.303569862515916E-011
   77.0568750000000        -5.023090917772209E-011
   77.2706250000000        -5.391966727611957E-011
   77.4843750000000        -5.298886343551415E-011
   77.6981250000000        -4.656466816769843E-011
   77.9118750000000        -3.415244122520539E-011
   78.1256250000000        -1.576612722425734E-011
   78.3393750000000         7.968733996428813E-012
   78.5531250000000         3.575467750583862E-011
   78.7668750000000         6.561968092756190E-011
   78.9806250000000         9.498406368839366E-011
   79.1943750000000         1.208036468615305E-010
   79.4081250000000         1.397890645226563E-010
   79.6218750000000         1.486929767477150E-010
   79.8356250000000         1.446481396013152E-010
   80.0493750000000         1.255306900229090E-010
   80.2631250000000         9.031557952737377E-011
   80.4768750000000         3.938586507904615E-011
   80.6906250000000        -2.524450465720114E-011
   80.9043750000000        -9.983290742490922E-011
   81.1181250000000        -1.789675015007921E-010
   81.3318750000000        -2.558054011528709E-010
   81.5456250000000        -3.224962393208582E-010
   81.7593750000000        -3.707798003534325E-010
   81.9731250000000        -3.927266622423181E-010
   82.1868750000000        -3.815710841009191E-010
   82.4006250000000        -3.325677923751190E-010
   82.6143750000000        -2.437910258985647E-010
   82.8281250000000        -1.167872262918921E-010
   83.0418750000000         4.300622643132353E-011
   83.2556250000000         2.261537735807853E-010
   83.4693750000000         4.194840962004187E-010
   83.6831250000000         6.067523271730124E-010
   83.8968750000000         7.696971622778332E-010
   84.1106250000000         8.894485362878175E-010
   84.3243750000000         9.482010644814706E-010
   84.5381250000000         9.310308823228879E-010
   84.7518750000000         8.277029716753918E-010
   84.9656250000000         6.342964651109052E-010
   85.1793750000000         3.544700763854618E-010
   85.3931250000000         2.009826492068244E-013
   85.6068750000000        -4.081409250445382E-010
   85.8206250000000        -8.424762338666254E-010
   86.0343750000000        -1.268489955296216E-009
   86.2481250000000        -1.647859930782966E-009
   86.4618750000000        -1.941129234241855E-009
   86.6756250000000        -2.111039945399929E-009
   86.8893750000000        -2.126082557804767E-009
   87.1031250000000        -1.963968104551135E-009
   87.3168750000000        -1.614704871610416E-009
   87.5306250000000        -1.082962835922232E-009
   87.7443750000000        -3.894391593758789E-010
   87.9581250000000         4.290028670713911E-010
   88.1718750000000         1.320563850559487E-009
   88.3856250000000         2.221143817392030E-009
   88.5993750000000         3.058300897829250E-009
   88.8131250000000         3.756328606476834E-009
   89.0268750000000         4.242132142017179E-009
   89.2406250000000         4.451487111074573E-009
   89.4543750000000         4.335194966287739E-009
   89.6681250000000         3.864616356647963E-009
   89.8818750000000         3.036071984046787E-009
   90.0956250000000         1.873652607436226E-009
   90.3093750000000         4.300740191364921E-010
   90.5231250000000        -1.214656127561331E-009
   90.7368750000000        -2.956833563110245E-009
   90.9506250000000        -4.674812900125333E-009
   91.1643750000000        -6.236642858887349E-009
   91.3781250000000        -7.509133489237314E-009
   91.5918750000000        -8.367766107120492E-009
   91.8056250000000        -8.706753384625099E-009
   92.0193750000000        -8.448501991737104E-009
   92.2331250000000        -7.551729802907461E-009
   92.4468750000000        -6.017546197230532E-009
   92.6606250000000        -3.892915198106291E-009
   92.8743750000000        -1.271080590950436E-009
   93.0881250000000         1.711270676746788E-009
   93.3018750000000         4.880109038230716E-009
   93.5156250000000         8.033198745275521E-009
   93.7293750000000         1.095181941856412E-008
   93.9431250000000         1.341442265178092E-008
   94.1568750000000         1.521141211211416E-008
   94.3706250000000         1.616012354317757E-008
   94.5843750000000         1.611902674956579E-008
   94.7981250000000         1.500017934116292E-008
   95.0118750000000         1.277903193435266E-008
   95.2256250000000         9.500812853274248E-009
   95.4393750000000         5.282899758817552E-009
   95.6531250000000         3.128057198139514E-010
   95.8668750000000        -5.158344494933862E-009
   96.0806250000000        -1.082670954083242E-008
   96.2943750000000        -1.635059711082465E-008
   96.5081250000000        -2.136865062433953E-008
   96.7218750000000        -2.552048627150937E-008
   96.9356250000000        -2.846872719209445E-008
   97.1493750000000        -2.992124765699528E-008
   97.3631250000000        -2.965236247373585E-008
   97.5768750000000        -2.752168088606721E-008
   97.7906250000000        -2.348939308742021E-008
   98.0043750000000        -1.762687182373264E-008
   98.2181250000000        -1.012164968868628E-008
   98.4318750000000        -1.276070350714438E-009
   98.6456250000000         8.500797788036490E-009
   98.8593750000000         1.870806369040067E-008
   99.0731250000000         2.877444569231838E-008
   99.2868750000000         3.808556779950157E-008
   99.5006250000000         4.601607660639152E-008
   99.7143750000000         5.196517835854936E-008
   99.9281250000000         5.539388100442320E-008
   100.141875000000         5.586197491345427E-008
   100.355625000000         5.306261897052266E-008
   100.569375000000         4.685233462940007E-008
   100.783125000000         3.727426433372108E-008
   100.996875000000         2.457273256928106E-008
   101.210625000000         9.197461335909023E-009
   101.424375000000        -8.203766920137305E-009
   101.638125000000        -2.680464920160399E-008
   101.851875000000        -4.563210383491850E-008
   102.065625000000        -6.360949716720370E-008
   102.279375000000        -7.960989314682902E-008
   102.493125000000        -9.251713311256333E-008
   102.706875000000        -1.012918826019729E-007
   102.920625000000        -1.050392188692933E-007
   103.134375000000        -1.030739222437343E-007
   103.348125000000        -9.497941645791285E-008
   103.561875000000        -8.065630935348061E-008
   103.775625000000        -6.035673653121793E-008
   103.989375000000        -3.470121369171461E-008
   104.203125000000        -4.675450620459446E-009
   104.416875000000         2.839445292515047E-008
   104.630625000000         6.288886149694142E-008
   104.844375000000         9.696266677548422E-008
   105.058125000000         1.286323843416189E-007
   105.271875000000         1.558787936477908E-007
   105.485625000000         1.767604124111547E-007
   105.699375000000         1.895320588264133E-007
   105.913125000000         1.927619751189164E-007
   106.126875000000         1.854405323624608E-007
   106.340625000000         1.670734631224114E-007
   106.554375000000         1.377529104955260E-007
   106.768125000000         9.820035217795949E-008
   106.981875000000         4.977664394672098E-008
   107.195625000000        -5.544010228157057E-009
   107.409375000000        -6.523747891769907E-008
   107.623125000000        -1.263297332052289E-007
   107.836875000000        -1.855304906709218E-007
   108.050625000000        -2.393952747233495E-007
   108.264375000000        -2.845086310231607E-007
   108.478125000000        -3.176794620924206E-007
   108.691875000000        -3.361380677008263E-007
   108.905625000000        -3.377236250892198E-007
   109.119375000000        -3.210505987373383E-007
   109.333125000000        -2.856429924225233E-007
   109.546875000000        -2.320264679978880E-007
   109.760625000000        -1.617701358813312E-007
   109.974375000000        -7.747220920339093E-008
   110.188125000000         1.731339735212888E-008
   110.401875000000         1.182091940737400E-007
   110.615625000000         2.202012033036852E-007
   110.829375000000         3.178738178282839E-007
   111.043125000000         4.056820351626292E-007
   111.256875000000         4.782478911199167E-007
   111.470625000000         5.306657521210974E-007
   111.684375000000         5.587997437874062E-007
   111.898125000000         5.595561186442884E-007
   112.111875000000         5.311138737670713E-007
   112.325625000000         4.730984384557454E-007
   112.539375000000         3.866857202028234E-007
   112.753125000000         2.746271210514764E-007
   112.966875000000         1.411901557232670E-007
   113.180625000000        -7.986191636277241E-009
   113.394375000000        -1.661174904771564E-007
   113.608125000000        -3.255726711731746E-007
   113.821875000000        -4.782326156059802E-007
   114.035625000000        -6.158916998222761E-007
   114.249375000000        -7.306824431247655E-007
   114.463125000000        -8.155014168278015E-007
   114.676875000000        -8.644137201567038E-007
   114.890625000000        -8.730137171798633E-007
   115.104375000000        -8.387213531804358E-007
   115.318125000000        -7.609961654979702E-007
   115.531875000000        -6.414549381017309E-007
   115.745625000000        -4.838836257734622E-007
   115.959375000000        -2.941394483429665E-007
   116.173125000000        -7.994464879339914E-008
   116.386875000000         1.494209761860959E-007
   116.600625000000         3.835163268620479E-007
   116.814375000000         6.112068076128429E-007
   117.028125000000         8.211824976051047E-007
   117.241875000000         1.002502539738662E-006
   117.455625000000         1.145139817065055E-006
   117.669375000000         1.240499456104448E-006
   117.883125000000         1.281885446958395E-006
   118.096875000000         1.264891661665156E-006
   118.310625000000         1.187696686383864E-006
   118.524375000000         1.051246009121931E-006
   118.738125000000         8.593100295915649E-007
   118.951875000000         6.184118563976102E-007
   119.165625000000         3.376246839706137E-007
   119.379375000000         2.824444369098800E-008
   119.593125000000        -2.966508510195283E-007
   119.806875000000        -6.227383367974057E-007
   120.020625000000        -9.350627073145195E-007
   120.234375000000        -1.218698547372131E-006
   120.448125000000        -1.459434489313803E-006
   120.661875000000        -1.644449342952013E-006
   120.875625000000        -1.762949805498322E-006
   121.089375000000        -1.806740058791727E-006
   121.303125000000        -1.770695512505291E-006
   121.516875000000        -1.653116117255233E-006
   121.730625000000        -1.455938971812401E-006
   121.944375000000        -1.184795263091928E-006
   122.158125000000        -8.489027440736034E-007
   122.371875000000        -4.607917712102275E-007
   122.585625000000        -3.587014998025315E-008
   122.799375000000         4.081605970385207E-007
   123.013125000000         8.520177194648328E-007
   123.226875000000         1.275651936483880E-006
   123.440625000000         1.659131863897235E-006
   123.654375000000         1.983560880680401E-006
   123.868125000000         2.231985746059518E-006