  -1.60312500000000         2.120473816059326E-020
  -1.38937500000000         9.934660415410109E-020
  -1.17562500000000         2.575673304447010E-019
 -0.961875000000000        -2.350949956389031E-020
 -0.748125000000000        -5.006848458736306E-018
 -0.534375000000000        -3.583137446445394E-017
 -0.320625000000000        -1.736650430893603E-016
 -0.106875000000000        -6.704482856022490E-016
  0.106875000000000        -2.184148804182291E-015
  0.320625000000000        -6.195317687842310E-015
  0.534375000000000        -1.560753332259936E-014
  0.748125000000000        -3.545145294896372E-014
  0.961875000000000        -7.356624354323847E-014
   1.17562500000000        -1.410403488467355E-013
   1.38937500000000        -2.521296077571031E-013
   1.60312500000000        -4.236825025588631E-013
   1.81687500000000        -6.738708129796631E-013
   2.03062500000000        -1.019929881001829E-012
   2.24437500000000        -1.475594828892587E-012
   2.45812500000000        -2.048189634407648E-012
   2.67187500000000        -2.735559939131669E-012
   2.88562500000000        -3.523478075266414E-012
   3.09937500000000        -4.383983999369880E-012
   3.31312500000000        -5.275300512709632E-012
   3.52687500000000        -6.143440479853598E-012
   3.74062500000000        -6.924667106756176E-012
   3.95437500000000        -7.549957623774486E-012
   4.16812500000000        -7.951209649843197E-012
   4.38187500000000        -8.067055120950227E-012
   4.59562500000000        -7.847916757926707E-012
   4.80937500000000        -7.260953911865928E-012
   5.02312500000000        -6.292397034887529E-012
   5.23687500000000        -4.948542279985324E-012
   5.45062500000000        -3.254332154130661E-012
   5.66437500000000        -1.249666933245700E-012
   5.87812500000000         1.015375075638557E-012
   6.09187500000000         3.486055514502558E-012
   6.30562500000000         6.108038640132690E-012
   6.51937500000000         8.830939208820976E-012
   6.73312500000000         1.161054718924954E-011
   6.94687500000000         1.440932866214413E-011
   7.16062500000000         1.719447635538752E-011
   7.37437500000000         1.993502244296677E-011
   7.58812500000000         2.259830214361345E-011
   7.80187500000000         2.514717661473831E-011
   8.01562500000000         2.753822542399871E-011
   8.22937500000000         2.972240209917581E-011
   8.44312500000000         3.164679239369913E-011
   8.65687500000000         3.325890149201684E-011
   8.87062500000000         3.451237268784282E-011
   9.08437500000000         3.537332782451002E-011
   9.29812500000000         3.582541354770565E-011
   9.51187500000000         3.587350100598003E-011
   9.72562500000000         3.554561099361919E-011
   9.93937500000000         3.489162068717406E-011
   10.1531250000000         3.398040552060811E-011
   10.3668750000000         3.289370088077600E-011
   10.5806250000000         3.171951721420332E-011
   10.7943750000000         3.054554003741330E-011
   11.0081250000000         2.945253985707003E-011
   11.2218750000000         2.851070950201974E-011
   11.4356250000000         2.777749124561120E-011
   11.6493750000000         2.729728407025579E-011
   11.8631250000000         2.710322326835616E-011
   12.0768750000000         2.721962379766294E-011
   12.2906250000000         2.766367072520079E-011
   12.5043750000000         2.844692804933252E-011
   12.7181250000000         2.957455885481991E-011
   12.9318750000000         3.104344553950675E-011
   13.1456250000000         3.283926670195743E-011
   13.3593750000000         3.493184777943117E-011
   13.5731250000000         3.727212174135830E-011
   13.7868750000000         3.978993946132903E-011
   14.0006250000000         4.239410582239787E-011
   14.2143750000000         4.497561707924691E-011
   14.4281250000000         4.741418156050758E-011
   14.6418750000000         4.958642664092282E-011
   14.8556250000000         5.137601314075464E-011
   15.0693750000000         5.268429728880599E-011
   15.2831250000000         5.343905177196303E-011
   15.4968750000000         5.360134887803801E-011
   15.7106250000000         5.316822092858862E-011
   15.9243750000000         5.217217333907648E-011
   16.1381250000000         5.067781169783604E-011
   16.3518750000000         4.877471849366001E-011
   16.5656250000000         4.656812415332736E-011
   16.7793750000000         4.417056454001199E-011
   16.9931250000000         4.169471002488058E-011
   17.2068750000000         3.924692264994992E-011
   17.4206250000000         3.692344898553270E-011
   17.6343750000000         3.480909521429912E-011
   17.8481250000000         3.297777365493433E-011
   18.0618750000000         3.149316373921071E-011
   18.2756250000000         3.040944226435342E-011
   18.4893750000000         2.977175322404875E-011
   18.7031250000000         2.961481406325365E-011
   18.9168750000000         2.995977413673827E-011
   19.1306250000000         3.081042615923515E-011
   19.3443750000000         3.214945440882430E-011
   19.5581250000000         3.393469030969579E-011
   19.7718750000000         3.609690084715671E-011
   19.9856250000000         3.854154127205429E-011
   20.1993750000000         4.115265825181643E-011
   20.4131250000000         4.379969633941108E-011
   20.6268750000000         4.634729340054170E-011
   20.8406250000000         4.866571913997641E-011
   21.0543750000000         5.064142815026577E-011
   21.2681250000000         5.218710926972605E-011
   21.4818750000000         5.324803069876847E-011
   21.6956250000000         5.380540961174009E-011
   21.9093750000000         5.387618121854531E-011
   22.1231250000000         5.350828873928894E-011
   22.3368750000000         5.277413799495563E-011
   22.5506250000000         5.176167792230613E-011
   22.7643750000000         5.056576821511046E-011
   22.9781250000000         4.927895105299945E-011
   23.1918750000000         4.798440604137994E-011
   23.4056250000000         4.675130215849095E-011
   23.6193750000000         4.563187171714029E-011
   23.8331250000000         4.466158255796227E-011
   24.0468750000000         4.386032956621738E-011
   24.2606250000000         4.323474369939319E-011
   24.4743750000000         4.278085025662516E-011
   24.6881250000000         4.248674477707389E-011
   24.9018750000000         4.233463171022244E-011
   25.1156250000000         4.230163832050345E-011
   25.3293750000000         4.236038961982975E-011
   25.5431250000000         4.247981040174530E-011
   25.7568750000000         4.262546748398189E-011
   25.9706250000000         4.275989699628376E-011
   26.1843750000000         4.284364990801674E-011
   26.3981250000000         4.283740435221958E-011
   26.6118750000000         4.270426254484944E-011
   26.8256250000000         4.241190244833716E-011
   27.0393750000000         4.193493088691662E-011
   27.2531250000000         4.125691654976751E-011
   27.4668750000000         4.037144779452017E-011
   27.6806250000000         3.928227242593329E-011
   27.8943750000000         3.800216884892339E-011
   28.1081250000000         3.655227886196498E-011
   28.3218750000000         3.495947880478433E-011
   28.5356250000000         3.325438126978853E-011
   28.7493750000000         3.146953821855371E-011
   28.9631250000000         2.963697469477377E-011
   29.1768750000000         2.778674616943908E-011
   29.3906250000000         2.594587190435437E-011
   29.6043750000000         2.413743725605836E-011
   29.8181250000000         2.237991184431695E-011
   30.0318750000000         2.068641665580510E-011
   30.2456250000000         1.906319502265274E-011
   30.4593750000000         1.750987218862381E-011
   30.6731250000000         1.601938931563360E-011
   30.8868750000000         1.457748155076621E-011
   31.1006250000000         1.316392650069562E-011
   31.3143750000000         1.175371301614755E-011
   31.5281250000000         1.031866919051283E-011
   31.7418750000000         8.831169214446095E-012
   31.9556250000000         7.266696941355963E-012
   32.1693750000000         5.606875387119507E-012
   32.3831250000000         3.841971844961014E-012
   32.5968750000000         1.972321244020394E-012
   32.8106250000000         8.716155960817032E-015
   33.0243750000000        -2.029298352969710E-012
   33.2381250000000        -4.116335453736979E-012
   33.4518750000000        -6.224983197350632E-012
   33.6656250000000        -8.329742199081474E-012
   33.8793750000000        -1.041171257083296E-011
   34.0931250000000        -1.246194517945517E-011
   34.3068750000000        -1.448197854947047E-011
   34.5206250000000        -1.648346939896065E-011
   34.7343750000000        -1.848536194869403E-011
   34.9481250000000        -2.050892012025207E-011
   35.1618750000000        -2.257178702556092E-011
   35.3756250000000        -2.468144020820749E-011
   35.5893750000000        -2.683067855081570E-011
   35.8031250000000        -2.899446289958240E-011
   36.0168750000000        -3.112978596370200E-011
   36.2306250000000        -3.317992301385458E-011
   36.4443750000000        -3.508095127518437E-011
   36.6581250000000        -3.677193329305408E-011
   36.8718750000000        -3.820541239868547E-011
   37.0856250000000        -3.935810906988269E-011
   37.2993750000000        -4.024013354711842E-011
   37.5131250000000        -4.089960936974784E-011
   37.7268750000000        -4.142401100949566E-011
   37.9406250000000        -4.193426277029955E-011
   38.1543750000000        -4.257522301438766E-011
   38.3681250000000        -4.350134264630757E-011
   38.5818750000000        -4.485919617512876E-011
   38.7956250000000        -4.677160938023924E-011
   39.0093750000000        -4.932193039913288E-011
   39.2231250000000        -5.254293482614461E-011
   39.4368750000000        -5.641158003368602E-011
   39.6506250000000        -6.084983543184432E-011
   39.8643750000000        -6.573183083559933E-011
   40.0781250000000        -7.089658638091441E-011
   40.2918750000000        -7.616440446670924E-011
   40.5056250000000        -8.135375270865786E-011
   40.7193750000000        -8.629817808794572E-011
   40.9331250000000        -9.086092699393508E-011
   41.1468750000000        -9.494406579907334E-011
   41.3606250000000        -9.849296200130142E-011
   41.5743750000000        -1.014964879720819E-010
   41.7881250000000        -1.039825115020070E-010
   42.0018750000000        -1.060110502728820E-010
   42.2156250000000        -1.076659813305928E-010
   42.4293750000000        -1.090468785622088E-010
   42.6431250000000        -1.102626211507914E-010
   42.8568750000000        -1.114270852684632E-010
   43.0706250000000        -1.126561698438276E-010
   43.2843750000000        -1.140672308986827E-010
   43.4981250000000        -1.157785601042833E-010
   43.7118750000000        -1.179069117202513E-010
   43.9256250000000        -1.205644555261420E-010
   44.1393750000000        -1.238534295992425E-010
   44.3531250000000        -1.278581289877655E-010
   44.5668750000000        -1.326352281533119E-010
   44.7806250000000        -1.382041702077381E-010
   44.9943750000000        -1.445389586246635E-010
   45.2081250000000        -1.515628633654789E-010
   45.4218750000000        -1.591480862809771E-010
   45.6356250000000        -1.671208774784562E-010
   45.8493750000000        -1.752716232561871E-010
   46.0631250000000        -1.833704091860710E-010
   46.2768750000000        -1.911859011683119E-010
   46.4906250000000        -1.985043773691153E-010
   46.7043750000000        -2.051484410701361E-010
   46.9181250000000        -2.109917094997198E-010
   47.1318750000000        -2.159678169393423E-010
   47.3456250000000        -2.200737852522532E-010
   47.5593750000000        -2.233666779545688E-010
   47.7731250000000        -2.259540149378617E-010
   47.9868750000000        -2.279799105933155E-010
   48.2006250000000        -2.296093506124572E-010
   48.4143750000000        -2.310126289631147E-010
   48.6281250000000        -2.323517239009734E-010
   48.8418750000000        -2.337694415704439E-010
   49.0556250000000        -2.353837277958251E-010
   49.2693750000000        -2.372867810093309E-010
   49.4831250000000        -2.395472787843114E-010
   49.6968750000000        -2.422146090913020E-010
   49.9106250000000        -2.453250952459817E-010
   50.1243750000000        -2.489076014462740E-010
   50.3381250000000        -2.529869817014335E-010
   50.5518750000000        -2.575847379468520E-010
   50.7656250000000        -2.627177473121729E-010
   50.9793750000000        -2.683946652130441E-010
   51.1931250000000        -2.746114872328316E-010
   51.4068750000000        -2.813468566741657E-010
   51.6206250000000        -2.885579885840598E-010
   51.8343750000000        -2.961800181341086E-010
   52.0481250000000        -3.041270482767344E-010
   52.2618750000000        -3.122965957186546E-010
   52.4756250000000        -3.205764239984957E-010
   52.6893750000000        -3.288524507584491E-010
   52.9031250000000        -3.370177337842696E-010
   53.1168750000000        -3.449806106298826E-010
   53.3306250000000        -3.526710310856154E-010
   53.5443750000000        -3.600441618536147E-010
   53.7581250000000        -3.670816177520219E-010
   53.9718750000000        -3.737899102204545E-010
   54.1856250000000        -3.801959285879412E-010
   54.3993750000000        -3.863416529566623E-010
   54.6131250000000        -3.922773792059182E-010
   54.8268750000000        -3.980551347509301E-010
   55.0406250000000        -4.037229787854902E-010
   55.2543750000000        -4.093202920008956E-010
   55.4681250000000        -4.148743640732703E-010
   55.6818750000000        -4.203986896899100E-010
   55.8956250000000        -4.258929558938735E-010
   56.1093750000000        -4.313443994460080E-010
   56.3231250000000        -4.367312398024864E-010
   56.5368750000000        -4.420277145032801E-010
   56.7506250000000        -4.472110802322215E-010
   56.9643750000000        -4.522694984057492E-010
   57.1781250000000        -4.572120703040952E-010
   57.3918750000000        -4.620786582451301E-010
   57.6056250000000        -4.669490244422835E-010
   57.8193750000000        -4.719497239080688E-010
   58.0331250000000        -4.772556144568490E-010
   58.2468750000000        -4.830852051220655E-010
   58.4606250000000        -4.896886650333907E-010
   58.6743750000000        -4.973268429432957E-010
   58.8881250000000        -5.062406559142313E-010
   59.1018750000000        -5.166147906540862E-010
   59.3156250000000        -5.285385198973594E-010
   59.5293750000000        -5.419675362709673E-010
   59.7431250000000        -5.566918621091824E-010
   59.9568750000000        -5.723180404189864E-010
   60.1706250000000        -5.882706995945260E-010
   60.3843750000000        -6.038165047675846E-010
   60.5981250000000        -6.181136379251593E-010
   60.8118750000000        -6.302864982847548E-010
   61.0256250000000        -6.395203135350570E-010
   61.2393750000000        -6.451668476934455E-010
   61.4531250000000        -6.468521779064286E-010
   61.6668750000000        -6.445724114750185E-010
   61.8806250000000        -6.387619788076342E-010
   62.0943750000000        -6.303241358476698E-010
   62.3081250000000        -6.206104596135214E-010
   62.5218750000000        -6.113435410744543E-010
   62.7356250000000        -6.044843747417461E-010
   62.9493750000000        -6.020484247163114E-010
   63.1631250000000        -6.058862587774781E-010
   63.3768750000000        -6.174460457559188E-010
   63.5906250000000        -6.375428652840583E-010
   63.8043750000000        -6.661642252639623E-010
   64.0181250000000        -7.023380261710474E-010
   64.2318750000000        -7.440872970159265E-010
   64.4456250000000        -7.884907629295104E-010
   64.6593750000000        -8.318590949342080E-010
   64.8731250000000        -8.700233637407347E-010
   65.0868750000000        -8.987209046984806E-010
   65.3006250000000        -9.140521025344237E-010
   65.5143750000000        -9.129674738683498E-010
   65.7281250000000        -8.937373899178847E-010
   65.9418750000000        -8.563523435506871E-010
   66.1556250000000        -8.027994304759964E-010
   66.3693750000000        -7.371690519755295E-010
   66.5831250000000        -6.655556013061604E-010
   66.7968750000000        -5.957320062895235E-010
   67.0106250000000        -5.366005439870204E-010
   67.2243750000000        -4.974430336250313E-010
   67.4381250000000        -4.870177814304025E-010
   67.6518750000000        -5.125737785420775E-010
   67.8656250000000        -5.788674910907982E-010
   68.0793750000000        -6.872815864535953E-010
   68.2931250000000        -8.351469577708012E-010
   68.5068750000000        -1.015360560957493E-009
   68.7206250000000        -1.216381305984869E-009
   68.9343750000000        -1.422656392487706E-009
   69.1481250000000        -1.615499174153905E-009
   69.3618750000000        -1.774401249367961E-009
   69.5756250000000        -1.878718406639291E-009
   69.7893750000000        -1.909630053875961E-009
   70.0031250000000        -1.852231444485179E-009
   70.2168750000000        -1.697588042876313E-009
   70.4306250000000        -1.444561062479802E-009
   70.6443750000000        -1.101206074331086E-009
   70.8581250000000        -6.855530193934418E-010
   71.0718750000000        -2.256032648623224E-010
   71.2856250000000         2.415808820578420E-010
   71.4993750000000         6.717601625996912E-010
   71.7131250000000         1.016367974541269E-009
   71.9268750000000         1.226235564867270E-009
   72.1406250000000         1.256011543316906E-009
   72.3543750000000         1.069003301958482E-009
   72.5681250000000         6.420855450127539E-010
   72.7818750000000        -2.974821293237260E-011
   72.9956250000000        -9.296636631022041E-010
   73.2093750000000        -2.016576713231456E-009
   73.4231250000000        -3.224515479162014E-009
   73.6368750000000        -4.464139306967704E-009
   73.8506250000000        -5.626678175281987E-009
   74.0643750000000        -6.590389178349871E-009
   74.2781250000000        -7.229410184522168E-009
   74.4918750000000        -7.424647607080439E-009
   74.7056250000000        -7.076074715225457E-009
   74.9193750000000        -6.115564107663042E-009
   75.1331250000000        -4.519156769871097E-009
   75.3468750000000        -2.317508898506984E-009
   75.5606250000000         3.968094594588323E-010
   75.7743750000000         3.466446938472939E-009
   75.9881250000000         6.671938851253050E-009
   76.2018750000000         9.740694028247537E-009
   76.4156250000000         1.236262554930237E-008
   76.6293750000000         1.421217270581100E-008
   76.8431250000000         1.497579953928078E-008
   77.0568750000000         1.438336174965146E-008
   77.2706250000000         1.224106644815153E-008
   77.4843750000000         8.463186501785446E-009
   77.6981250000000         3.099304842306383E-009
   77.9118750000000        -3.646278906170841E-009
   78.1256250000000        -1.140618648869015E-008
   78.3393750000000        -1.965534510649070E-008
   78.5531250000000        -2.773197513920530E-008
   78.7668750000000        -3.487486507540676E-008
   78.9806250000000        -4.027618347279218E-008
   79.1943750000000        -4.314748484019579E-008
   79.4081250000000        -4.279493560313926E-008
   79.6218750000000        -3.869827421043932E-008
   79.8356250000000        -3.058679273131657E-008
   80.0493750000000        -1.850484751400769E-008
   80.2631250000000        -2.859207447798023E-009
   80.4768750000000         1.555894796206462E-008
   80.6906250000000         3.558332014176492E-008
   80.9043750000000         5.571702666285507E-008
   81.1181250000000         7.421368676202766E-008
   81.3318750000000         8.919321570857835E-008
   81.5456250000000         9.878706185328153E-008
   81.7593750000000         1.013041942771123E-007
   81.9731250000000         9.540604984645495E-008
   82.1868750000000         8.027618589570234E-008
   82.4006250000000         5.576888600512695E-008
   82.6143750000000         2.252068562081975E-008
   82.8281250000000        -1.799010295548908E-008
   83.0418750000000        -6.344819496309436E-008
   83.2556250000000        -1.107787866760102E-007
   83.4693750000000        -1.563007233746461E-007
   83.6831250000000        -1.959522712922687E-007
   83.8968750000000        -2.255797226775821E-007
   84.1106250000000        -2.412724346790882E-007
   84.3243750000000        -2.397219024376810E-007
   84.5381250000000        -2.185776768956192E-007
   84.7518750000000        -1.767699033336124E-007
   84.9656250000000        -1.147674477643915E-007
   85.1793750000000        -3.474228806700972E-008
   85.3931250000000         5.938478963348768E-008
   85.6068750000000         1.620352178132165E-007
   85.8206250000000         2.662092414638949E-007
   86.0343750000000         3.638660171387583E-007
   86.2481250000000         4.464332538541079E-007
   86.4618750000000         5.054204123437147E-007
   86.6756250000000         5.330983176077536E-007
   86.8893750000000         5.231987128926381E-007
   87.1031250000000         4.715807373475476E-007
   87.3168750000000         3.768083224253166E-007
   87.5306250000000         2.405836450069566E-007
   87.7443750000000         6.798735201071817E-008
   87.9581250000000        -1.325137621940803E-007
   88.1718750000000        -3.493169685219565E-007
   88.3856250000000        -5.681997837172989E-007
   88.5993750000000        -7.730906921953088E-007
   88.8131250000000        -9.470625412085414E-007
   89.0268750000000        -1.073496829415850E-006
   89.2406250000000        -1.137349290476833E-006
   89.4543750000000        -1.126432961824149E-006
   89.6681250000000        -1.032625689230633E-006
   89.8818750000000        -8.529058469803737E-007
   90.0956250000000        -5.901236835258233E-007
   90.3093750000000        -2.534264228790047E-007
   90.5231250000000         1.417271506714040E-007
   90.7368750000000         5.740031473495345E-007
   90.9506250000000         1.017091911590583E-006
   91.1643750000000         1.441050145844561E-006
   91.3781250000000         1.814032521311228E-006
   91.5918750000000         2.104327285165574E-006
   91.8056250000000         2.282581521219653E-006
   92.0193750000000         2.324078479177901E-006
   92.2331250000000         2.210913802455786E-006
   92.4468750000000         1.933911217828056E-006
   92.6606250000000         1.494122438415193E-006
   92.8743750000000         9.037711781374352E-007
   93.0881250000000         1.865270790647458E-007
   93.3018750000000        -6.229689239005439E-007
   93.5156250000000        -1.480362405210669E-006
   93.7293750000000        -2.333611326562206E-006
   93.9431250000000        -3.125712255348255E-006
   94.1568750000000        -3.798006870183221E-006
   94.3706250000000        -4.293900196289109E-006
   94.5843750000000        -4.562780801198485E-006
   94.7981250000000        -4.563902513628147E-006
   95.0118750000000        -4.269969913603947E-006
   95.2256250000000        -3.670168004979373E-006
   95.4393750000000        -2.772391408536694E-006
   95.6531250000000        -1.604460411729350E-006
   95.8668750000000        -2.141594857389603E-007
   96.0806250000000         1.332003446068325E-006
   96.2943750000000         2.951344589391055E-006
   96.5081250000000         4.548804653576968E-006
   96.7218750000000         6.021863430302028E-006
   96.9356250000000         7.266347798621633E-006
   97.1493750000000         8.182837958345079E-006
   97.3631250000000         8.683315392300670E-006
   97.5768750000000         8.697652779156528E-006
   97.7906250000000         8.179524924751675E-006
   98.0043750000000         7.111323746708111E-006
   98.2181250000000         5.507691035597717E-006
   98.4318750000000         3.417340127890347E-006
   98.6456250000000         9.229200505048113E-007
   98.8593750000000        -1.861220308913567E-006
   99.0731250000000        -4.793389971866995E-006
   99.2868750000000        -7.710927069809521E-006
   99.5006250000000        -1.043834209679928E-005
   99.7143750000000        -1.279686484685095E-005
   99.9281250000000        -1.461491401084712E-005
   100.141875000000        -1.573891818703453E-005
   100.355625000000        -1.604385644624044E-005
   100.569375000000        -1.544286131327230E-005
   100.783125000000        -1.389524089678615E-005
   100.996875000000        -1.141233142241430E-005
   101.210625000000        -8.060685592811285E-006
   101.424375000000        -3.962232387673478E-006
   101.638125000000         7.087960176127545E-007
   101.851875000000         5.732192973057427E-006
   102.065625000000         1.085119159619403E-005
   102.279375000000         1.578460163546079E-005
   102.493125000000         2.024112529622784E-005
   102.706875000000         2.393515130139362E-005
   102.920625000000         2.660320374901583E-005
   103.134375000000         2.802014286720531E-005
   103.348125000000         2.801418503921363E-005
   103.561875000000         2.647983307101207E-005
   103.775625000000         2.338788497393446E-005
   103.989375000000         1.879181760398225E-005
   104.203125000000         1.283001422836144E-005
   104.416875000000         5.723513524275673E-006
   104.630625000000        -2.230809567742203E-006
   104.844375000000        -1.067147613387647E-005
   105.058125000000        -1.918765108094060E-005
   105.271875000000        -2.733778160285907E-005
   105.485625000000        -3.467080236437417E-005
   105.699375000000        -4.074892331606488E-005
   105.913125000000        -4.517090356857927E-005
   106.126875000000        -4.759465582963401E-005
   106.340625000000        -4.775802347046262E-005
   106.554375000000        -4.549662628008809E-005
   106.768125000000        -4.075777847757660E-005
   106.981875000000        -3.360963818337975E-005
   107.195625000000        -2.424494388037694E-005
   107.409375000000        -1.297892153756470E-005
   107.623125000000        -2.411962172306100E-007
   107.836875000000         1.343819601735336E-005
   108.050625000000         2.744833629409600E-005
   108.264375000000         4.112187570839224E-005
   108.478125000000         5.376355807047361E-005
   108.691875000000         6.468174395951683E-005
   108.905625000000         7.322168589737569E-005
   109.119375000000         7.879916224837489E-005
   109.333125000000         8.093298077941655E-005
   109.546875000000         7.927481736695489E-005
   109.760625000000         7.363486624367570E-005
   109.974375000000         6.400184983943189E-005
   110.188125000000         5.055607209178957E-005
   110.401875000000         3.367440100861427E-005
   110.615625000000         1.392633413719371E-005
   110.829375000000        -7.939368368022935E-006
   111.043125000000        -3.101761033603849E-005
   111.256875000000        -5.427913805310320E-005
   111.470625000000        -7.661119514730167E-005
   111.684375000000        -9.686539672393154E-005
   111.898125000000        -1.139110926546678E-004
   112.111875000000        -1.266920518921958E-004
   112.325625000000        -1.342839249326242E-004
   112.539375000000        -1.359496591503574E-004
   112.753125000000        -1.311898795089966E-004
   112.966875000000        -1.197852295037554E-004
   113.180625000000        -1.018278128371901E-004
   113.394375000000        -7.773919611688287E-005
   113.608125000000        -4.827292787014445E-005
   113.821875000000        -1.450018929698837E-005
   114.035625000000         2.222200459305427E-005
   114.249375000000         6.029972236663933E-005
   114.463125000000         9.796684406199469E-005
   114.676875000000         1.333633039124504E-004
   114.890625000000         1.646236136886717E-004
   115.104375000000         1.899716055923255E-004
   115.318125000000         2.078166794978529E-004
   115.531875000000         2.168464131203354E-004
   115.745625000000         2.161102403620361E-004
   115.959375000000         2.050890534295045E-004
   116.173125000000         1.837460515571058E-004
   116.386875000000         1.525549367666932E-004
   116.600625000000         1.125026176398213E-004
   116.814375000000         6.506487771283912E-005
   117.028125000000         1.215492940494584E-005
   117.241875000000        -4.395367430549971E-005
   117.455625000000        -1.007267521678577E-004
   117.669375000000        -1.554873689399211E-004
   117.883125000000        -2.055461640883308E-004
   118.096875000000        -2.483374674599381E-004
   118.310625000000        -2.815539335351198E-004
   118.524375000000        -3.032722369576511E-004
   118.738125000000        -3.120626236029867E-004
   118.951875000000        -3.070758043245904E-004
   119.165625000000        -2.881017847337857E-004
   119.379375000000        -2.555966879508340E-004
   119.593125000000        -2.106753670832156E-004
   119.806875000000        -1.550695185808754E-004
   120.020625000000        -9.105298069779611E-005
   120.234375000000        -2.133781040643176E-005
   120.448125000000         5.105354399923289E-005
   120.661875000000         1.229332303309997E-004
   120.875625000000         1.911023596043320E-004
   121.089375000000         2.525063972519600E-004
   121.303125000000         3.043831491080677E-004
   121.516875000000         3.443953483053875E-004
   121.730625000000         3.707407683003396E-004
   121.944375000000         3.822341320127890E-004
   122.158125000000         3.783567711313825E-004
   122.371875000000         3.592719038467794E-004
   122.585625000000         3.258054191708623E-004
   122.799375000000         2.793940503875959E-004
   123.013125000000         2.220046602512379E-004
   123.226875000000         1.560299288908439E-004
   123.440625000000         8.416693420149553E-005
   123.654375000000         9.285872426833115E-006
   123.868125000000        -6.570355636843051E-005