  -1.60312500000000         1.369836036067788E-024
  -1.38937500000000         3.673873263443065E-018
  -1.17562500000000         3.029252447487956E-017
 -0.961875000000000         1.636858848566621E-016
 -0.748125000000000         6.999584238569826E-016
 -0.534375000000000         2.514002185618526E-015
 -0.320625000000000         7.796090404608747E-015
 -0.106875000000000         2.123673021061592E-014
  0.106875000000000         5.159651570191609E-014
  0.320625000000000         1.133218751323271E-013
  0.534375000000000         2.274397137484041E-013
  0.748125000000000         4.217363864521628E-013
  0.961875000000000         7.289768881254915E-013
   1.17562500000000         1.183621710064270E-012
   1.38937500000000         1.817391251867596E-012
   1.60312500000000         2.654048742847538E-012
   1.81687500000000         3.703939625921248E-012
   2.03062500000000         4.959672499477891E-012
   2.24437500000000         6.393600816451079E-012
   2.45812500000000         7.957214353446784E-012
   2.67187500000000         9.583004834660462E-012
   2.88562500000000         1.118871170769070E-011
   3.09937500000000         1.268634078922732E-011
   3.31312500000000         1.398592880398167E-011
   3.52687500000000         1.500718806860547E-011
   3.74062500000000         1.568623737827872E-011
   3.95437500000000         1.598045706957996E-011
   4.16812500000000         1.587147170337464E-011
   4.38187500000000         1.535937406839124E-011
   4.59562500000000         1.446749965310482E-011
   4.80937500000000         1.322550608598924E-011
   5.02312500000000         1.166640077211464E-011
   5.23687500000000         9.822093856705498E-012
   5.45062500000000         7.713741382325034E-012
   5.66437500000000         5.358883372040733E-012
   5.87812500000000         2.766829927535511E-012
   6.09187500000000        -4.589059658805311E-014
   6.30562500000000        -3.044376173662607E-012
   6.51937500000000        -6.168175200479865E-012
   6.73312500000000        -9.316829366257799E-012
   6.94687500000000        -1.234987939600471E-011
   7.16062500000000        -1.508758919706261E-011
   7.37437500000000        -1.732721700152801E-011
   7.58812500000000        -1.885971852847274E-011
   7.80187500000000        -1.949599999275325E-011
   8.01562500000000        -1.909996215159405E-011
   8.22937500000000        -1.761025245347303E-011
   8.44312500000000        -1.506071641903644E-011
   8.65687500000000        -1.158427909637916E-011
   8.87062500000000        -7.412909372143280E-012
   9.08437500000000        -2.850258368168574E-012
   9.29812500000000         1.758684398798894E-012
   9.51187500000000         6.073755507347553E-012
   9.72562500000000         9.795601543685222E-012
   9.93937500000000         1.270936036560644E-011
   10.1531250000000         1.470639064608565E-011
   10.3668750000000         1.579886850973454E-011
   10.5806250000000         1.610904566278197E-011
   10.7943750000000         1.584172918418935E-011
   11.0081250000000         1.525310090652414E-011
   11.2218750000000         1.459813759514916E-011
   11.4356250000000         1.409450052653812E-011
   11.6493750000000         1.388466634758620E-011
   11.8631250000000         1.401957779985232E-011
   12.0768750000000         1.445900977818821E-011
   12.2906250000000         1.508887966584675E-011
   12.5043750000000         1.575882253124140E-011
   12.7181250000000         1.631518398987024E-011
   12.9318750000000         1.665175032697312E-011
   13.1456250000000         1.673571053691003E-011
   13.3593750000000         1.662770667845666E-011
   13.5731250000000         1.647954103732773E-011
   13.7868750000000         1.650976653403579E-011
   14.0006250000000         1.696972246692969E-011
   14.2143750000000         1.809063330216874E-011
   14.4281250000000         2.004097489448425E-011
   14.6418750000000         2.288473091315190E-011
   14.8556250000000         2.655917788806094E-011
   15.0693750000000         3.087542835751767E-011
   15.2831250000000         3.553521566428702E-011
   15.4968750000000         4.017486262157413E-011
   15.7106250000000         4.441685547982769E-011
   15.9243750000000         4.792780177588951E-011
   16.1381250000000         5.046460893675383E-011
   16.3518750000000         5.191294472611254E-011
   16.5656250000000         5.229836841664294E-011
   16.7793750000000         5.178281791308219E-011
   16.9931250000000         5.062612295289873E-011
   17.2068750000000         4.914581980998455E-011
   17.4206250000000         4.765895591224989E-011
   17.6343750000000         4.642800662137712E-011
   17.8481250000000         4.562379496875362E-011
   18.0618750000000         4.529332342484945E-011
   18.2756250000000         4.536116415191339E-011
   18.4893750000000         4.564073689985446E-011
   18.7031250000000         4.587614142764560E-011
   18.9168750000000         4.578148978560193E-011
   19.1306250000000         4.509285420642378E-011
   19.3443750000000         4.361744567283984E-011
   19.5581250000000         4.126261565925190E-011
   19.7718750000000         3.805976689925176E-011
   19.9856250000000         3.416218058310277E-011
   20.1993750000000         2.982870753178091E-011
   20.4131250000000         2.539591725682309E-011
   20.6268750000000         2.123646204020254E-011
   20.8406250000000         1.772085845059280E-011
   21.0543750000000         1.517245377464309E-011
   21.2681250000000         1.383668662636903E-011
   21.4818750000000         1.386226949795723E-011
   21.6956250000000         1.528428085216398E-011
   21.9093750000000         1.802979924429614E-011
   22.1231250000000         2.192906429973110E-011
   22.3368750000000         2.673525083932637E-011
   22.5506250000000         3.214834171218216E-011
   22.7643750000000         3.784695649190747E-011
   22.9781250000000         4.351223594705673E-011
   23.1918750000000         4.885500516781754E-011
   23.4056250000000         5.363395066508705E-011
   23.6193750000000         5.766745641757257E-011
   23.8331250000000         6.084435312067033E-011
   24.0468750000000         6.311662793908276E-011
   24.2606250000000         6.449906295785009E-011
   24.4743750000000         6.504893524056688E-011
   24.6881250000000         6.486004585100815E-011
   24.9018750000000         6.404371151113984E-011
   25.1156250000000         6.271355620901946E-011
   25.3293750000000         6.098372765321821E-011
   25.5431250000000         5.896270071150473E-011
   25.7568750000000         5.675397090534781E-011
   25.9706250000000         5.447114113758535E-011
   26.1843750000000         5.223884621083720E-011
   26.3981250000000         5.020711114945444E-011
   26.6118750000000         4.855462970761251E-011
   26.8256250000000         4.748740109803120E-011
   27.0393750000000         4.722882304403475E-011
   27.2531250000000         4.799877554885711E-011
   27.4668750000000         4.999054952607233E-011
   27.6806250000000         5.334216519860569E-011
   27.8943750000000         5.810681365823875E-011
   28.1081250000000         6.423467346985902E-011
   28.3218750000000         7.155889097914786E-011
   28.5356250000000         7.980571132510701E-011
   28.7493750000000         8.860255680470177E-011
   28.9631250000000         9.751992782050324E-011
   29.1768750000000         1.061067843308033E-010
   29.3906250000000         1.139372915482036E-010
   29.6043750000000         1.206528589408336E-010
   29.8181250000000         1.259972573336603E-010
   30.0318750000000         1.298345677731203E-010
   30.2456250000000         1.321563960553653E-010
   30.4593750000000         1.330668396729933E-010
   30.6731250000000         1.327599306853117E-010
   30.8868750000000         1.314835550350387E-010
   31.1006250000000         1.295017480249736E-010
   31.3143750000000         1.270646607489421E-010
   31.5281250000000         1.243777010669284E-010
   31.7418750000000         1.215924328993751E-010
   31.9556250000000         1.188046398518565E-010
   32.1693750000000         1.160623345674010E-010
   32.3831250000000         1.133854601692613E-010
   32.5968750000000         1.107878379017679E-010
   32.8106250000000         1.082920271321635E-010
   33.0243750000000         1.059473321237714E-010
   33.2381250000000         1.038287512568721E-010
   33.4518750000000         1.020355877984562E-010
   33.6656250000000         1.006762310717767E-010
   33.8793750000000         9.985213415586964E-011
   34.0931250000000         9.963635885504582E-011
   34.3068750000000         1.000611845075971E-010
   34.5206250000000         1.011065354419136E-010
   34.7343750000000         1.027020679993444E-010
   34.9481250000000         1.047349158366977E-010
   35.1618750000000         1.070665650723533E-010
   35.3756250000000         1.095517936341358E-010
   35.5893750000000         1.120653797843540E-010
   35.8031250000000         1.145151095357026E-010
   36.0168750000000         1.168557247800085E-010
   36.2306250000000         1.190954069922212E-010
   36.4443750000000         1.212839403460894E-010
   36.6581250000000         1.235051232445931E-010
   36.8718750000000         1.258504040080982E-010
   37.0856250000000         1.284032560130283E-010
   37.2993750000000         1.312108679672096E-010
   37.5131250000000         1.342755071397030E-010
   37.7268750000000         1.375381359457198E-010
   37.9406250000000         1.408840039964354E-010
   38.1543750000000         1.441508611569384E-010
   38.3681250000000         1.471505874775368E-010
   38.5818750000000         1.496897565432504E-010
   38.7956250000000         1.515983504952923E-010
   39.0093750000000         1.527590798004257E-010
   39.2231250000000         1.531237443681562E-010
   39.4368750000000         1.527358596710068E-010
   39.6506250000000         1.517234723875522E-010
   39.8643750000000         1.502989285276761E-010
   40.0781250000000         1.487363418582994E-010
   40.2918750000000         1.473457527556393E-010
   40.5056250000000         1.464389797112721E-010
   40.7193750000000         1.462934362676788E-010
   40.9331250000000         1.471189401483474E-010
   41.1468750000000         1.490362223978488E-010
   41.3606250000000         1.520605146650508E-010
   41.5743750000000         1.561014379455436E-010
   41.7881250000000         1.609780480104046E-010
   42.0018750000000         1.664402432353039E-010
   42.2156250000000         1.722047348861377E-010
   42.4293750000000         1.779919262938467E-010
   42.6431250000000         1.835593373125062E-010
   42.8568750000000         1.887288972392897E-010
   43.0706250000000         1.934030229585754E-010
   43.2843750000000         1.975654141909015E-010
   43.4981250000000         2.012701778016486E-010
   43.7118750000000         2.046158342839174E-010
   43.9256250000000         2.077158907062480E-010
   44.1393750000000         2.106647126324778E-010
   44.3531250000000         2.135122522476295E-010
   44.5668750000000         2.162442300096849E-010
   44.7806250000000         2.187815252815340E-010
   44.9943750000000         2.209893046630464E-010
   45.2081250000000         2.227024492510683E-010
   45.4218750000000         2.237593165897968E-010
   45.6356250000000         2.240396461241126E-010
   45.8493750000000         2.234935932003499E-010
   46.0631250000000         2.221666725433501E-010
   46.2768750000000         2.202049511048843E-010
   46.4906250000000         2.178475871176755E-010
   46.7043750000000         2.153974189304118E-010
   46.9181250000000         2.131834792341987E-010
   47.1318750000000         2.115171607705262E-010
   47.3456250000000         2.106473228677447E-010
   47.5593750000000         2.107264001302407E-010
   47.7731250000000         2.117903571406151E-010
   47.9868750000000         2.137559505808820E-010
   48.2006250000000         2.164396271706224E-010
   48.4143750000000         2.195880081660322E-010
   48.6281250000000         2.229210822127532E-010
   48.8418750000000         2.261792256605649E-010
   49.0556250000000         2.291646673752900E-010
   49.2693750000000         2.317724581820989E-010
   49.4831250000000         2.340013455826343E-010
   49.6968750000000         2.359524474959110E-010
   49.9106250000000         2.378030802126550E-010
   50.1243750000000         2.397746917062331E-010
   50.3381250000000         2.420865056432609E-010
   50.5518750000000         2.449161714728535E-010
   50.7656250000000         2.483629815206916E-010
   50.9793750000000         2.524248013701915E-010
   51.1931250000000         2.569972075012410E-010
   51.4068750000000         2.618813632754409E-010
   51.6206250000000         2.668173455129305E-010
   51.8343750000000         2.715195514541715E-010
   52.0481250000000         2.757217732665010E-010
   52.2618750000000         2.792152565657212E-010
   52.4756250000000         2.818811738897830E-010
   52.6893750000000         2.837087460462229E-010
   52.9031250000000         2.847936369331714E-010
   53.1168750000000         2.853217168909006E-010
   53.3306250000000         2.855386626872018E-010
   53.5443750000000         2.857150598031999E-010
   53.7581250000000         2.861015073469793E-010
   53.9718750000000         2.869001078462988E-010
   54.1856250000000         2.882294356018110E-010
   54.3993750000000         2.901220506787925E-010
   54.6131250000000         2.925218232347695E-010
   54.8268750000000         2.953053488236382E-010
   55.0406250000000         2.983075857167815E-010
   55.2543750000000         3.013581272648654E-010
   55.4681250000000         3.043143982751872E-010
   55.6818750000000         3.070870640838170E-010
   55.8956250000000         3.096560882134194E-010
   56.1093750000000         3.120713459663485E-010
   56.3231250000000         3.144405502909693E-010
   56.5368750000000         3.169044241825081E-010
   56.7506250000000         3.196034466933309E-010
   56.9643750000000         3.226456496462556E-010
   57.1781250000000         3.260783698708610E-010
   57.3918750000000         3.298715504927357E-010
   57.6056250000000         3.339090390973617E-010
   57.8193750000000         3.380077937156281E-010
   58.0331250000000         3.419388714047696E-010
   58.2468750000000         3.454590137838126E-010
   58.4606250000000         3.483535803902345E-010
   58.6743750000000         3.504722066710425E-010
   58.8881250000000         3.517534607800756E-010
   59.1018750000000         3.522343100129371E-010
   59.3156250000000         3.520530770187995E-010
   59.5293750000000         3.514267894108654E-010
   59.7431250000000         3.506195339866673E-010
   59.9568750000000         3.499021306208466E-010
   60.1706250000000         3.495191735249593E-010
   60.3843750000000         3.496507199978222E-010
   60.5981250000000         3.503946068239069E-010
   60.8118750000000         3.517556778363366E-010
   61.0256250000000         3.536600083759184E-010
   61.2393750000000         3.559687246853159E-010
   61.4531250000000         3.585177857923409E-010
   61.6668750000000         3.611419354594019E-010
   61.8806250000000         3.637122011310015E-010
   62.0943750000000         3.661528978209642E-010
   62.3081250000000         3.684580014488305E-010
   62.5218750000000         3.706850027453400E-010
   62.7356250000000         3.729445256764040E-010
   62.9493750000000         3.753813719214399E-010
   63.1631250000000         3.781471686837238E-010
   63.3768750000000         3.813758449751312E-010
   63.5906250000000         3.851661915130697E-010
   63.8043750000000         3.895668626198511E-010
   64.0181250000000         3.945743662153253E-010
   64.2318750000000         4.001311878268111E-010
   64.4456250000000         4.061395092384136E-010
   64.6593750000000         4.124677040974653E-010
   64.8731250000000         4.189623452501148E-010
   65.0868750000000         4.254608537649085E-010
   65.3006250000000         4.317971614143094E-010
   65.5143750000000         4.378094082487598E-010
   65.7281250000000         4.433453232820548E-010
   65.9418750000000         4.482657241047642E-010
   66.1556250000000         4.524578921563066E-010
   66.3693750000000         4.558403765267921E-010
   66.5831250000000         4.583754607176585E-010
   66.7968750000000         4.600777645044719E-010
   67.0106250000000         4.610254481263971E-010
   67.2243750000000         4.613546181835925E-010
   67.4381250000000         4.612597127580717E-010
   67.6518750000000         4.609724403062140E-010
   67.8656250000000         4.607444838404190E-010
   68.0793750000000         4.608192132285831E-010
   68.2931250000000         4.614003513455981E-010
   68.5068750000000         4.626317676841509E-010
   68.7206250000000         4.645790712523151E-010
   68.9343750000000         4.672258645895001E-010
   69.1481250000000         4.704812418674384E-010
   69.3618750000000         4.741944147832497E-010
   69.5756250000000         4.781881383351944E-010
   69.7893750000000         4.822829662747162E-010
   70.0031250000000         4.863274472675174E-010
   70.2168750000000         4.902175364077965E-010
   70.4306250000000         4.939040850757347E-010
   70.6443750000000         4.973910486273328E-010
   70.8581250000000         5.007201780056452E-010
   71.0718750000000         5.039458807460987E-010
   71.2856250000000         5.071134104057016E-010
   71.4993750000000         5.102345691286192E-010
   71.7131250000000         5.132771739140934E-010
   71.9268750000000         5.161627536133829E-010
   72.1406250000000         5.187782318332864E-010
   72.3543750000000         5.210014219892099E-010
   72.5681250000000         5.227252990837232E-010
   72.7818750000000         5.238955305263867E-010
   72.9956250000000         5.245252804969468E-010
   73.2093750000000         5.247134960686040E-010
   73.4231250000000         5.246396546706242E-010
   73.6368750000000         5.245446461110529E-010
   73.8506250000000         5.246996899385359E-010
   74.0643750000000         5.253677161481794E-010
   74.2781250000000         5.267626808310165E-010
   74.4918750000000         5.290147614540893E-010
   74.7056250000000         5.321526435859287E-010
   74.9193750000000         5.360940607959271E-010
   75.1331250000000         5.406623728040602E-010
   75.3468750000000         5.456160248584494E-010
   75.5606250000000         5.506821148929602E-010
   75.7743750000000         5.556041281397351E-010
   75.9881250000000         5.601772118128127E-010
   76.2018750000000         5.642790419519055E-010
   76.4156250000000         5.678837505064110E-010
   76.6293750000000         5.710569786792596E-010
   76.8431250000000         5.739431207842523E-010
   77.0568750000000         5.767303637473529E-010
   77.2706250000000         5.796192386104816E-010
   77.4843750000000         5.827904685351337E-010
   77.6981250000000         5.863701508867862E-010
   77.9118750000000         5.904213744349183E-010
   78.1256250000000         5.949337851802427E-010
   78.3393750000000         5.998346605616512E-010
   78.5531250000000         6.050062221377026E-010
   78.7668750000000         6.103135765710927E-010
   78.9806250000000         6.156260244724772E-010
   79.1943750000000         6.208389347786492E-010
   79.4081250000000         6.258897761599674E-010
   79.6218750000000         6.307573355448653E-010
   79.8356250000000         6.354613513615920E-010
   80.0493750000000         6.400437627991129E-010
   80.2631250000000         6.445558589250942E-010
   80.4768750000000         6.490342784780271E-010
   80.6906250000000         6.534889334598088E-010
   80.9043750000000         6.578973639357176E-010
   81.1181250000000         6.621981965212993E-010
   81.3318750000000         6.662999687138587E-010
   81.5456250000000         6.701024218544711E-010
   81.7593750000000         6.735077117885842E-010
   81.9731250000000         6.764442301223636E-010
   82.1868750000000         6.788833908897506E-010
   82.4006250000000         6.808504023514785E-010
   82.6143750000000         6.824275945844433E-010
   82.8281250000000         6.837489827041763E-010
   83.0418750000000         6.849868339335510E-010
   83.2556250000000         6.863321132197553E-010
   83.4693750000000         6.879707243491581E-010
   83.6831250000000         6.900600609462831E-010
   83.8968750000000         6.927121577940665E-010
   84.1106250000000         6.959756422724143E-010
   84.3243750000000         6.998386449074145E-010
   84.5381250000000         7.042280953681963E-010
   84.7518750000000         7.090222608864281E-010
   84.9656250000000         7.140709940441860E-010
   85.1793750000000         7.192174384145193E-010
   85.3931250000000         7.243225456933680E-010
   85.6068750000000         7.292722899378173E-010
   85.8206250000000         7.339968247057367E-010
   86.0343750000000         7.384661771679593E-010
   86.2481250000000         7.426873237373227E-010
   86.4618750000000         7.466927863240188E-010
   86.6756250000000         7.505139356140150E-010
   86.8893750000000         7.541747221771629E-010
   87.1031250000000         7.576694371488535E-010
   87.3168750000000         7.609615399963365E-010
   87.5306250000000         7.639775414952428E-010
   87.7443750000000         7.666250814157131E-010
   87.9581250000000         7.688098752329026E-010
   88.1718750000000         7.704559789726055E-010
   88.3856250000000         7.715323507895705E-010
   88.5993750000000         7.720752619369297E-010
   88.8131250000000         7.721914032766209E-010
   89.0268750000000         7.720697694883978E-010
   89.2406250000000         7.719564052723898E-010
   89.4543750000000         7.721402626009107E-010
   89.6681250000000         7.729111067808166E-010
   89.8818750000000         7.745312539392057E-010
   90.0956250000000         7.771957201660537E-010
   90.3093750000000         7.810086739609026E-010
   90.5231250000000         7.859677693229048E-010
   90.7368750000000         7.919636315124124E-010
   90.9506250000000         7.987948505371951E-010
   91.1643750000000         8.061999010019171E-010
   91.3781250000000         8.138852148209343E-010
   91.5918750000000         8.215701962629752E-010
   91.8056250000000         8.290164583172834E-010
   92.0193750000000         8.360588496156043E-010
   92.2331250000000         8.426108840032829E-010
   92.4468750000000         8.486725716162189E-010
   92.6606250000000         8.543111317454833E-010
   92.8743750000000         8.596374567731538E-010
   93.0881250000000         8.647827548505067E-010
   93.3018750000000         8.698629780534905E-010
   93.5156250000000         8.749567967630893E-010
   93.7293750000000         8.800926753719438E-010
   93.9431250000000         8.852429876053383E-010
   94.1568750000000         8.903253822864523E-010
   94.3706250000000         8.952262253432505E-010
   94.5843750000000         8.998187256052950E-010
   94.7981250000000         9.039840147933561E-010
   95.0118750000000         9.076383812614424E-010
   95.2256250000000         9.107501835203690E-010
   95.4393750000000         9.133419537078798E-010
   95.6531250000000         9.155049249354881E-010
   95.8668750000000         9.173806638011887E-010
   96.0806250000000         9.191493416188787E-010
   96.2943750000000         9.210180262835664E-010
   96.5081250000000         9.231896214726947E-010
   96.7218750000000         9.258484960272449E-010
   96.9356250000000         9.291455803488670E-010
   97.1493750000000         9.331767416491420E-010
   97.3631250000000         9.379814581616614E-010
   97.5768750000000         9.435394564606804E-010
   97.7906250000000         9.497750310141474E-010
   98.0043750000000         9.565686761654470E-010
   98.2181250000000         9.637649726266070E-010
   98.4318750000000         9.711986962648365E-010
   98.6456250000000         9.787049454332275E-010
   98.8593750000000         9.861429933186115E-010
   99.0731250000000         9.934001713628806E-010
   99.2868750000000         1.000412712437966E-009
   99.5006250000000         1.007157753522474E-009
   99.7143750000000         1.013655152763102E-009
   99.9281250000000         1.019946064860071E-009
   100.141875000000         1.026087043453207E-009
   100.355625000000         1.032123971106056E-009
   100.569375000000         1.038068321434980E-009
   100.783125000000         1.043889149702332E-009
   100.996875000000         1.049500621292899E-009
   101.210625000000         1.054763816300267E-009
   101.424375000000         1.059501332211018E-009
   101.638125000000         1.063513313719695E-009
   101.851875000000         1.066616570594538E-009
   102.065625000000         1.068669085040768E-009
   102.279375000000         1.069602305942919E-009
   102.493125000000         1.069447064173771E-009
   102.706875000000         1.068341671208117E-009
   102.920625000000         1.066531412172811E-009
   103.134375000000         1.064351943411967E-009
   103.348125000000         1.062195327669320E-009
   103.561875000000         1.060475656330446E-009
   103.775625000000         1.059582992166450E-009
   103.989375000000         1.059842238788263E-009
   104.203125000000         1.061484450978924E-009
   104.416875000000         1.064621553833543E-009
   104.630625000000         1.069247939326427E-009
   104.844375000000         1.075248063078868E-009
   105.058125000000         1.082421266913554E-009
   105.271875000000         1.090514534792547E-009
   105.485625000000         1.099261989795359E-009
   105.699375000000         1.108417367810352E-009
   105.913125000000         1.117778808343336E-009
   106.126875000000         1.127211684727638E-009
   106.340625000000         1.136644248134591E-009
   106.554375000000         1.146065216277044E-009
   106.768125000000         1.155500518850344E-009
   106.981875000000         1.164988162152731E-009
   107.195625000000         1.174550908348727E-009
   107.409375000000         1.184168261416551E-009
   107.623125000000         1.193759005675848E-009
   107.836875000000         1.203168579177720E-009
   108.050625000000         1.212170881379058E-009
   108.264375000000         1.220474489470388E-009
   108.478125000000         1.227750924330917E-009
   108.691875000000         1.233654662592630E-009
   108.905625000000         1.237862302474420E-009
   109.119375000000         1.240104741796131E-009
   109.333125000000         1.240198555558117E-009
   109.546875000000         1.238077264168500E-009
   109.760625000000         1.233816252906841E-009
   109.974375000000         1.227642016198588E-009
   110.188125000000         1.219935448716157E-009
   110.401875000000         1.211228721861220E-009
   110.615625000000         1.202185572863884E-009
   110.829375000000         1.193567519892024E-009
   111.043125000000         1.186203748261003E-009
   111.256875000000         1.180938769332371E-009
   111.470625000000         1.178586430529714E-009
   111.684375000000         1.179877082569756E-009
   111.898125000000         1.185412447876345E-009
   112.111875000000         1.195615738775086E-009
   112.325625000000         1.210700626321708E-009
   112.539375000000         1.230642440353919E-009
   112.753125000000         1.255167115056309E-009
   112.966875000000         1.283751099916696E-009
   113.180625000000         1.315628899335865E-009
   113.394375000000         1.349822242652246E-009
   113.608125000000         1.385173483701812E-009
   113.821875000000         1.420390678371499E-009
   114.035625000000         1.454099567769741E-009
   114.249375000000         1.484907324033154E-009
   114.463125000000         1.511459259523655E-009
   114.676875000000         1.532510698755185E-009
   114.890625000000         1.546991362101322E-009
   115.104375000000         1.554068655031011E-009
   115.318125000000         1.553201880220247E-009
   115.531875000000         1.544193445076517E-009
   115.745625000000         1.527219357369405E-009
   115.959375000000         1.502845379316197E-009
   116.173125000000         1.472029028632980E-009
   116.386875000000         1.436096587828528E-009
   116.600625000000         1.396691425067328E-009
   116.814375000000         1.355724145856055E-009
   117.028125000000         1.315272404159487E-009
   117.241875000000         1.277501416991281E-009
   117.455625000000         1.244546783621302E-009
   117.669375000000         1.218415856872686E-009
   117.883125000000         1.200874126943551E-009
   118.096875000000         1.193354965486865E-009
   118.310625000000         1.196874651921759E-009
   118.524375000000         1.211968834776815E-009
   118.738125000000         1.238649559013548E-009
   118.951875000000         1.276391619639836E-009
   119.165625000000         1.324135111742413E-009
   119.379375000000         1.380324241720499E-009
   119.593125000000         1.442956542511485E-009
   119.806875000000         1.509671214339736E-009
   120.020625000000         1.577841731245191E-009
   120.234375000000         1.644686968383725E-009
   120.448125000000         1.707399360517229E-009
   120.661875000000         1.763264268669681E-009
   120.875625000000         1.809795123293320E-009
   121.089375000000         1.844847738246263E-009
   121.303125000000         1.866729821154801E-009
   121.516875000000         1.874291323492724E-009
   121.730625000000         1.866994677199576E-009
   121.944375000000         1.844957472360473E-009
   122.158125000000         1.808966451944685E-009
   122.371875000000         1.760473490943529E-009
   122.585625000000         1.701540361120201E-009
   122.799375000000         1.634778239524567E-009
   123.013125000000         1.563246642924841E-009
   123.226875000000         1.490333444808724E-009
   123.440625000000         1.419613811029085E-009
   123.654375000000         1.354699664174374E-009
   123.868125000000         1.299071232821929E-009