  -1.60312500000000        -1.881537237015746E-025
  -1.38937500000000        -6.466651906027100E-020
  -1.17562500000000        -6.234477139692058E-019
 -0.961875000000000        -3.688692280862338E-018
 -0.748125000000000        -1.682011571075117E-017
 -0.534375000000000        -6.383542779527838E-017
 -0.320625000000000        -2.085166498147329E-016
 -0.106875000000000        -5.970728570872545E-016
  0.106875000000000        -1.521148896532231E-015
  0.320625000000000        -3.490339335614908E-015
  0.534375000000000        -7.290043288299367E-015
  0.748125000000000        -1.400811217855685E-014
  0.961875000000000        -2.499573416115476E-014
   1.17562500000000        -4.176792756936704E-014
   1.38937500000000        -6.585406677660443E-014
   1.60312500000000        -9.860864169219522E-014
   1.81687500000000        -1.410156520210650E-013
   2.03062500000000        -1.934949377698536E-013
   2.24437500000000        -2.557687333460501E-013
   2.45812500000000        -3.267714124967730E-013
   2.67187500000000        -4.046360679180898E-013
   2.88562500000000        -4.868221139529088E-013
   3.09937500000000        -5.702655726210853E-013
   3.31312500000000        -6.516203082695521E-013
   3.52687500000000        -7.275558780285496E-013
   3.74062500000000        -7.950831989215163E-013
   3.95437500000000        -8.518232362227463E-013
   4.16812500000000        -8.961993578931790E-013
   4.38187500000000        -9.274634358099552E-013
   4.59562500000000        -9.458586700021105E-013
   4.80937500000000        -9.523129147807515E-013
   5.02312500000000        -9.483036773320128E-013
   5.23687500000000        -9.356782968165220E-013
   5.45062500000000        -9.162805389741757E-013
   5.66437500000000        -8.918518692401413E-013
   5.87812500000000        -8.638191750356544E-013
   6.09187500000000        -8.333363844738424E-013
   6.30562500000000        -8.013853380944895E-013
   6.51937500000000        -7.689178901026676E-013
   6.73312500000000        -7.370740972554243E-013
   6.94687500000000        -7.073504532088195E-013
   7.16062500000000        -6.817021581367199E-013
   7.37437500000000        -6.625185397504345E-013
   7.58812500000000        -6.524719747717721E-013
   7.80187500000000        -6.542174019148370E-013
   8.01562500000000        -6.699478195462403E-013
   8.22937500000000        -7.009823752335893E-013
   8.44312500000000        -7.474149482249462E-013
   8.65687500000000        -8.078215237001284E-013
   8.87062500000000        -8.791406218415508E-013
   9.08437500000000        -9.568952241366825E-013
   9.29812500000000        -1.035530692168238E-012
   9.51187500000000        -1.109070083829323E-012
   9.72562500000000        -1.171670736301393E-012
   9.93937500000000        -1.218439282377185E-012
   10.1531250000000        -1.245945623399990E-012
   10.3668750000000        -1.252663468546867E-012
   10.5806250000000        -1.239128763830371E-012
   10.7943750000000        -1.207753363490739E-012
   11.0081250000000        -1.162478507816137E-012
   11.2218750000000        -1.108127447414017E-012
   11.4356250000000        -1.049814814624249E-012
   11.6493750000000        -9.922099898204178E-013
   11.8631250000000        -9.390557422563602E-013
   12.0768750000000        -8.928763263270841E-013
   12.2906250000000        -8.549031639932645E-013
   12.5043750000000        -8.253156890288033E-013
   12.7181250000000        -8.034771164384560E-013
   12.9318750000000        -7.885781215662319E-013
   13.1456250000000        -7.799323768718594E-013
   13.3593750000000        -7.774096883696423E-013
   13.5731250000000        -7.815301181562941E-013
   13.7868750000000        -7.933662164301146E-013
   14.0006250000000        -8.143121086437643E-013
   14.2143750000000        -8.455305969543254E-013
   14.4281250000000        -8.876073490476073E-013
   14.6418750000000        -9.400334450865180E-013
   14.8556250000000        -1.000990220682723E-012
   15.0693750000000        -1.067365866441027E-012
   15.2831250000000        -1.134927582596145E-012
   15.4968750000000        -1.198934348182809E-012
   15.7106250000000        -1.254717330686224E-012
   15.9243750000000        -1.298524824696940E-012
   16.1381250000000        -1.328030222299808E-012
   16.3518750000000        -1.342848422159997E-012
   16.5656250000000        -1.344686504345336E-012
   16.7793750000000        -1.337208523799357E-012
   16.9931250000000        -1.325413002195267E-012
   17.2068750000000        -1.315000166238214E-012
   17.4206250000000        -1.311430726460818E-012
   17.6343750000000        -1.318995551776986E-012
   17.8481250000000        -1.340249131148544E-012
   18.0618750000000        -1.375423083469180E-012
   18.2756250000000        -1.422435064828809E-012
   18.4893750000000        -1.477099516500230E-012
   18.7031250000000        -1.533799039539212E-012
   18.9168750000000        -1.586260178967275E-012
   19.1306250000000        -1.628533326340181E-012
   19.3443750000000        -1.655889508878751E-012
   19.5581250000000        -1.665514255438146E-012
   19.7718750000000        -1.657022006341284E-012
   19.9856250000000        -1.632512274962461E-012
   20.1993750000000        -1.596281354946684E-012
   20.4131250000000        -1.554403108310612E-012
   20.6268750000000        -1.513864384099247E-012
   20.8406250000000        -1.481789011774219E-012
   21.0543750000000        -1.464560783202086E-012
   21.2681250000000        -1.467103174756550E-012
   21.4818750000000        -1.492508489827172E-012
   21.6956250000000        -1.541641493160214E-012
   21.9093750000000        -1.613345432909786E-012
   22.1231250000000        -1.704643580177051E-012
   22.3368750000000        -1.811222425645095E-012
   22.5506250000000        -1.927998568447779E-012
   22.7643750000000        -2.049711817442876E-012
   22.9781250000000        -2.171442887915447E-012
   23.1918750000000        -2.289001802526842E-012
   23.4056250000000        -2.399159798300546E-012
   23.6193750000000        -2.499710538314899E-012
   23.8331250000000        -2.589451457602464E-012
   24.0468750000000        -2.667826883172153E-012
   24.2606250000000        -2.734826705508282E-012
   24.4743750000000        -2.790546131910164E-012
   24.6881250000000        -2.835098717436694E-012
   24.9018750000000        -2.868400994729703E-012
   25.1156250000000        -2.890123679638317E-012
   25.3293750000000        -2.899849126855509E-012
   25.5431250000000        -2.897332133498154E-012
   25.7568750000000        -2.882644399652148E-012
   25.9706250000000        -2.856623049288489E-012
   26.1843750000000        -2.820979227769023E-012
   26.3981250000000        -2.778565311369104E-012
   26.6118750000000        -2.733318979373201E-012
   26.8256250000000        -2.690103864433039E-012
   27.0393750000000        -2.654402964667463E-012
   27.2531250000000        -2.631791807778436E-012
   27.4668750000000        -2.627353806704953E-012
   27.6806250000000        -2.645180556582016E-012
   27.8943750000000        -2.687782847725264E-012
   28.1081250000000        -2.755765246181522E-012
   28.3218750000000        -2.847556502136541E-012
   28.5356250000000        -2.959644767910612E-012
   28.7493750000000        -3.086661236389593E-012
   28.9631250000000        -3.222097922652974E-012
   29.1768750000000        -3.358821237553815E-012
   29.3906250000000        -3.489841430934992E-012
   29.6043750000000        -3.608914011549473E-012
   29.8181250000000        -3.711193296805606E-012
   30.0318750000000        -3.793440082299610E-012
   30.2456250000000        -3.854271905629910E-012
   30.4593750000000        -3.893955456018967E-012
   30.6731250000000        -3.914186338919175E-012
   30.8868750000000        -3.917587498333827E-012
   31.1006250000000        -3.907238363367593E-012
   31.3143750000000        -3.886262325323560E-012
   31.5281250000000        -3.857385878935876E-012
   31.7418750000000        -3.822774575469201E-012
   31.9556250000000        -3.784024926488782E-012
   32.1693750000000        -3.742191007363565E-012
   32.3831250000000        -3.698118113792327E-012
   32.5968750000000        -3.652679170991372E-012
   32.8106250000000        -3.607046895927097E-012
   33.0243750000000        -3.562943181677762E-012
   33.2381250000000        -3.522655453241168E-012
   33.4518750000000        -3.488994224011854E-012
   33.6656250000000        -3.465084970428436E-012
   33.8793750000000        -3.454057980873039E-012
   34.0931250000000        -3.458623254430924E-012
   34.3068750000000        -3.480767838953470E-012
   34.5206250000000        -3.521419989758909E-012
   34.7343750000000        -3.580316888778661E-012
   34.9481250000000        -3.655998602539755E-012
   35.1618750000000        -3.745949653442556E-012
   35.3756250000000        -3.846930043330297E-012
   35.5893750000000        -3.955407719961637E-012
   35.8031250000000        -4.067953578515984E-012
   36.0168750000000        -4.181682253109294E-012
   36.2306250000000        -4.294593776212473E-012
   36.4443750000000        -4.405672743304164E-012
   36.6581250000000        -4.514965584854879E-012
   36.8718750000000        -4.623298852784108E-012
   37.0856250000000        -4.732070789129716E-012
   37.2993750000000        -4.842696959680142E-012
   37.5131250000000        -4.956300044341683E-012
   37.7268750000000        -5.073159993684904E-012
   37.9406250000000        -5.192560271205458E-012
   38.1543750000000        -5.312591613925250E-012
   38.3681250000000        -5.430367666379881E-012
   38.5818750000000        -5.542167271307238E-012
   38.7956250000000        -5.643978896922551E-012
   39.0093750000000        -5.732055310002146E-012
   39.2231250000000        -5.803416311742985E-012
   39.4368750000000        -5.856473514752910E-012
   39.6506250000000        -5.891193580058598E-012
   39.8643750000000        -5.909409363175461E-012
   40.0781250000000        -5.914535985857360E-012
   40.2918750000000        -5.911347637406782E-012
   40.5056250000000        -5.905386882879072E-012
   40.7193750000000        -5.902284510572470E-012
   40.9331250000000        -5.907082048229197E-012
   41.1468750000000        -5.923720304194404E-012
   41.3606250000000        -5.954570528704997E-012
   41.5743750000000        -6.000303146168209E-012
   41.7881250000000        -6.059986538123375E-012
   42.0018750000000        -6.131397193891773E-012
   42.2156250000000        -6.211566521626676E-012
   42.4293750000000        -6.297352152993434E-012
   42.6431250000000        -6.386020255001363E-012
   42.8568750000000        -6.475616139812843E-012
   43.0706250000000        -6.565216482262152E-012
   43.2843750000000        -6.654852438662783E-012
   43.4981250000000        -6.745252870235210E-012
   43.7118750000000        -6.837308975412245E-012
   43.9256250000000        -6.931562872702546E-012
   44.1393750000000        -7.027566591781095E-012
   44.3531250000000        -7.123613291057529E-012
   44.5668750000000        -7.216459223993943E-012
   44.7806250000000        -7.301531661650844E-012
   44.9943750000000        -7.373365527961230E-012
   45.2081250000000        -7.426294598941471E-012
   45.4218750000000        -7.455281954117474E-012
   45.6356250000000        -7.456817422294946E-012
   45.8493750000000        -7.429543116601990E-012
   46.0631250000000        -7.374780144216794E-012
   46.2768750000000        -7.296608921627867E-012
   46.4906250000000        -7.201622780682097E-012
   46.7043750000000        -7.098238744783395E-012
   46.9181250000000        -6.995849880477564E-012
   47.1318750000000        -6.903797240167976E-012
   47.3456250000000        -6.830358993608174E-012
   47.5593750000000        -6.781919576341917E-012
   47.7731250000000        -6.762440760027158E-012
   47.9868750000000        -6.773236396864448E-012
   48.2006250000000        -6.813235775089960E-012
   48.4143750000000        -6.879404408395870E-012
   48.6281250000000        -6.967497778148829E-012
   48.8418750000000        -7.072853002998624E-012
   49.0556250000000        -7.191125781699669E-012
   49.2693750000000        -7.318933892961028E-012
   49.4831250000000        -7.454048728962808E-012
   49.6968750000000        -7.595523136246821E-012
   49.9106250000000        -7.743344938794465E-012
   50.1243750000000        -7.898055707578035E-012
   50.3381250000000        -8.060127031686937E-012
   50.5518750000000        -8.229459057530673E-012
   50.7656250000000        -8.404951254938735E-012
   50.9793750000000        -8.584278935966397E-012
   51.1931250000000        -8.764008009320972E-012
   51.4068750000000        -8.939804240217455E-012
   51.6206250000000        -9.107029219762247E-012
   51.8343750000000        -9.261261281020078E-012
   52.0481250000000        -9.398986114961659E-012
   52.2618750000000        -9.518003753115040E-012
   52.4756250000000        -9.617836731644146E-012
   52.6893750000000        -9.699795576042367E-012
   52.9031250000000        -9.766783042468622E-012
   53.1168750000000        -9.822890832336000E-012
   53.3306250000000        -9.872819561422634E-012
   53.5443750000000        -9.921270354101129E-012
   53.7581250000000        -9.972321884884733E-012
   53.9718750000000        -1.002905800042137E-011
   54.1856250000000        -1.009306499040917E-011
   54.3993750000000        -1.016460846363482E-011
   54.6131250000000        -1.024265399060112E-011
   54.8268750000000        -1.032526192804965E-011
   55.0406250000000        -1.041004347797256E-011
   55.2543750000000        -1.049466240844804E-011
   55.4681250000000        -1.057729052925637E-011
   55.6818750000000        -1.065691022890718E-011
   55.8956250000000        -1.073344021075117E-011
   56.1093750000000        -1.080769135523707E-011
   56.3231250000000        -1.088114512394101E-011
   56.5368750000000        -1.095553632892940E-011
   56.7506250000000        -1.103243495233045E-011
   56.9643750000000        -1.111283176502035E-011
   57.1781250000000        -1.119677278127663E-011
   57.3918750000000        -1.128322829352907E-011
   57.6056250000000        -1.136999980039596E-011
   57.8193750000000        -1.145401710402714E-011
   58.0331250000000        -1.153168571277035E-011
   58.2468750000000        -1.159922993426132E-011
   58.4606250000000        -1.165328646154169E-011
   58.6743750000000        -1.169137451886387E-011
   58.8881250000000        -1.171223540433575E-011
   59.1018750000000        -1.171593296290840E-011
   59.3156250000000        -1.170406151210250E-011
   59.5293750000000        -1.167938550654605E-011
   59.7431250000000        -1.164566817012105E-011
   59.9568750000000        -1.160716628303059E-011
   60.1706250000000        -1.156831357072046E-011
   60.3843750000000        -1.153325951837226E-011
   60.5981250000000        -1.150554154169093E-011
   60.8118750000000        -1.148797006560266E-011
   61.0256250000000        -1.148249430971613E-011
   61.2393750000000        -1.149025485217728E-011
   61.4531250000000        -1.151190192126424E-011
   61.6668750000000        -1.154753477178435E-011
   61.8806250000000        -1.159717577975164E-011
   62.0943750000000        -1.166072250700276E-011
   62.3081250000000        -1.173824258784041E-011
   62.5218750000000        -1.182988243525929E-011
   62.7356250000000        -1.193586585987398E-011
   62.9493750000000        -1.205649198059308E-011
   63.1631250000000        -1.219191611679534E-011
   63.3768750000000        -1.234201586024126E-011
   63.5906250000000        -1.250633115988194E-011
   63.8043750000000        -1.268392680578187E-011
   64.0181250000000        -1.287338140197922E-011
   64.2318750000000        -1.307266404272300E-011
   64.4456250000000        -1.327926480895249E-011
   64.6593750000000        -1.349013354584917E-011
   64.8731250000000        -1.370178620967790E-011
   65.0868750000000        -1.391041780672695E-011
   65.3006250000000        -1.411201787959572E-011
   65.5143750000000        -1.430259154762101E-011
   65.7281250000000        -1.447839257777030E-011
   65.9418750000000        -1.463617983760251E-011
   66.1556250000000        -1.477358050861256E-011
   66.3693750000000        -1.488931270605811E-011
   66.5831250000000        -1.498348657339097E-011
   66.7968750000000        -1.505762560192814E-011
   67.0106250000000        -1.511481433715922E-011
   67.2243750000000        -1.515937943295297E-011
   67.4381250000000        -1.519665230141761E-011
   67.6518750000000        -1.523237778050120E-011
   67.8656250000000        -1.527223862071605E-011
   68.0793750000000        -1.532125402678176E-011
   68.2931250000000        -1.538317042483130E-011
   68.5068750000000        -1.546016434622015E-011
   68.7206250000000        -1.555259388741276E-011
   68.9343750000000        -1.565909236188503E-011
   69.1481250000000        -1.577684186086180E-011
   69.3618750000000        -1.590193623797798E-011
   69.5756250000000        -1.603010804927556E-011
   69.7893750000000        -1.615717302899710E-011
   70.0031250000000        -1.627958386187145E-011
   70.2168750000000        -1.639480590207466E-011
   70.4306250000000        -1.650140800056271E-011
   70.6443750000000        -1.659903250230091E-011
   70.8581250000000        -1.668815968386831E-011
   71.0718750000000        -1.676966951774250E-011
   71.2856250000000        -1.684454027683115E-011
   71.4993750000000        -1.691342953570459E-011
   71.7131250000000        -1.697651345527536E-011
   71.9268750000000        -1.703344649304199E-011
   72.1406250000000        -1.708345253473857E-011
   72.3543750000000        -1.712574063783307E-011
   72.5681250000000        -1.715969557485243E-011
   72.7818750000000        -1.718548331472203E-011
   72.9956250000000        -1.720406414289138E-011
   73.2093750000000        -1.721748977113304E-011
   73.4231250000000        -1.722870994856916E-011
   73.6368750000000        -1.724129243129497E-011
   73.8506250000000        -1.725897923676989E-011
   74.0643750000000        -1.728515919420367E-011
   74.2781250000000        -1.732238512145838E-011
   74.4918750000000        -1.737198198576029E-011
   74.7056250000000        -1.743394033784628E-011
   74.9193750000000        -1.750687359383698E-011
   75.1331250000000        -1.758843942639439E-011
   75.3468750000000        -1.767581700490293E-011
   75.5606250000000        -1.776619295721968E-011
   75.7743750000000        -1.785747982766753E-011
   75.9881250000000        -1.794867400800240E-011
   76.2018750000000        -1.804015669194286E-011
   76.4156250000000        -1.813369774365151E-011
   76.6293750000000        -1.823212768415175E-011
   76.8431250000000        -1.833896454269469E-011
   77.0568750000000        -1.845764014379445E-011
   77.2706250000000        -1.859096883654796E-011
   77.4843750000000        -1.874054690791477E-011
   77.6981250000000        -1.890629794265034E-011
   77.9118750000000        -1.908645043776365E-011
   78.1256250000000        -1.927755762750886E-011
   78.3393750000000        -1.947494817083967E-011
   78.5531250000000        -1.967327094243695E-011
   78.7668750000000        -1.986718092636798E-011
   78.9806250000000        -2.005198044261903E-011
   79.1943750000000        -2.022410995635416E-011
   79.4081250000000        -2.038161610616785E-011
   79.6218750000000        -2.052406750192879E-011
   79.8356250000000        -2.065264952944440E-011
   80.0493750000000        -2.076964718365265E-011
   80.2631250000000        -2.087811505304856E-011
   80.4768750000000        -2.098122095248180E-011
   80.6906250000000        -2.108186364617413E-011
   80.9043750000000        -2.118234378130684E-011
   81.1181250000000        -2.128402380285136E-011
   81.3318750000000        -2.138733990730190E-011
   81.5456250000000        -2.149208945672779E-011
   81.7593750000000        -2.159750102466972E-011
   81.9731250000000        -2.170273972592653E-011
   82.1868750000000        -2.180713653118726E-011
   82.4006250000000        -2.191056247650290E-011
   82.6143750000000        -2.201350196250260E-011
   82.8281250000000        -2.211711390135010E-011
   83.0418750000000        -2.222304458633652E-011
   83.2556250000000        -2.233327860440504E-011
   83.4693750000000        -2.244965006162313E-011
   83.6831250000000        -2.257358369482085E-011
   83.8968750000000        -2.270579250837799E-011
   84.1106250000000        -2.284591396941852E-011
   84.3243750000000        -2.299267871834817E-011
   84.5381250000000        -2.314376390282850E-011
   84.7518750000000        -2.329602596279087E-011
   84.9656250000000        -2.344594238511834E-011
   85.1793750000000        -2.358990060272184E-011
   85.3931250000000        -2.372475434957014E-011
   85.6068750000000        -2.384790680064511E-011
   85.8206250000000        -2.395780994946218E-011
   86.0343750000000        -2.405392594406995E-011
   86.2481250000000        -2.413674332000890E-011
   86.4618750000000        -2.420772115822888E-011
   86.6756250000000        -2.426873005040932E-011
   86.8893750000000        -2.432203470595925E-011
   87.1031250000000        -2.436976492498114E-011
   87.3168750000000        -2.441379031499850E-011
   87.5306250000000        -2.445539188457750E-011
   87.7443750000000        -2.449537801070552E-011
   87.9581250000000        -2.453411266380123E-011
   88.1718750000000        -2.457164801799204E-011
   88.3856250000000        -2.460808278862497E-011
   88.5993750000000        -2.464379513236146E-011
   88.8131250000000        -2.467957492421999E-011
   89.0268750000000        -2.471701591188843E-011
   89.2406250000000        -2.475825044906828E-011
   89.4543750000000        -2.480607822768519E-011
   89.6681250000000        -2.486352659617869E-011
   89.8818750000000        -2.493370320076613E-011
   90.0956250000000        -2.501932619890489E-011
   90.3093750000000        -2.512241254445679E-011
   90.5231250000000        -2.524401871443188E-011
   90.7368750000000        -2.538405158036623E-011
   90.9506250000000        -2.554122209164867E-011
   91.1643750000000        -2.571331354238214E-011
   91.3781250000000        -2.589726527327496E-011
   91.5918750000000        -2.608964954744415E-011
   91.8056250000000        -2.628697119145865E-011
   92.0193750000000        -2.648607393872049E-011
   92.2331250000000        -2.668435136011377E-011
   92.4468750000000        -2.688002440267577E-011
   92.6606250000000        -2.707207142670852E-011
   92.8743750000000        -2.726018184298165E-011
   93.0881250000000        -2.744460341326190E-011
   93.3018750000000        -2.762576445363804E-011
   93.5156250000000        -2.780404162010251E-011
   93.7293750000000        -2.797948041545235E-011
   93.9431250000000        -2.815169514339758E-011
   94.1568750000000        -2.831957498584628E-011
   94.3706250000000        -2.848154647489276E-011
   94.5843750000000        -2.863572981058431E-011
   94.7981250000000        -2.878008480774283E-011
   95.0118750000000        -2.891292757156330E-011
   95.2256250000000        -2.903325802719851E-011
   95.4393750000000        -2.914096722854925E-011
   95.6531250000000        -2.923735344433592E-011
   95.8668750000000        -2.932496358841252E-011
   96.0806250000000        -2.940756757723025E-011
   96.2943750000000        -2.949010678531832E-011
   96.5081250000000        -2.957802167861405E-011
   96.7218750000000        -2.967689707642918E-011
   96.9356250000000        -2.979193268693728E-011
   97.1493750000000        -2.992718332374868E-011
   97.3631250000000        -3.008517573046290E-011
   97.5768750000000        -3.026660617298247E-011
   97.7906250000000        -3.047021817286185E-011
   98.0043750000000        -3.069285940575744E-011
   98.2181250000000        -3.092971390049293E-011
   98.4318750000000        -3.117499628110191E-011
   98.6456250000000        -3.142237448842117E-011
   98.8593750000000        -3.166572569907925E-011
   99.0731250000000        -3.189952656990747E-011
   99.2868750000000        -3.211951026663816E-011
   99.5006250000000        -3.232265389868799E-011
   99.7143750000000        -3.250737312136651E-011
   99.9281250000000        -3.267303812526186E-011
   100.141875000000        -3.281992710174723E-011
   100.355625000000        -3.294861289140259E-011
   100.569375000000        -3.305948202386029E-011
   100.783125000000        -3.315258679074245E-011
   100.996875000000        -3.322747782559378E-011
   101.210625000000        -3.328329152319238E-011
   101.424375000000        -3.331916451613001E-011
   101.638125000000        -3.333460455823372E-011
   101.851875000000        -3.333024978955228E-011
   102.065625000000        -3.330825918241805E-011
   102.279375000000        -3.327273093611071E-011
   102.493125000000        -3.322983639907129E-011
   102.706875000000        -3.318760034269424E-011
   102.920625000000        -3.315534282648131E-011
   103.134375000000        -3.314294078039028E-011
   103.348125000000        -3.315970079900086E-011
   103.561875000000        -3.321344751290368E-011
   103.775625000000        -3.330952766122998E-011
   103.989375000000        -3.345008227994882E-011
   104.203125000000        -3.363376757254997E-011
   104.416875000000        -3.385574568916964E-011
   104.630625000000        -3.410826076348047E-011
   104.844375000000        -3.438138585912671E-011
   105.058125000000        -3.466410221852157E-011
   105.271875000000        -3.494547055147219E-011
   105.485625000000        -3.521573440901131E-011
   105.699375000000        -3.546723118697006E-011
   105.913125000000        -3.569490782151319E-011
   106.126875000000        -3.589667589265167E-011
   106.340625000000        -3.607316581777301E-011
   106.554375000000        -3.622747126539853E-011
   106.768125000000        -3.636431918921730E-011
   106.981875000000        -3.648941874317924E-011
   107.195625000000        -3.660864771349403E-011
   107.409375000000        -3.672738389090956E-011
   107.623125000000        -3.684997347390908E-011
   107.836875000000        -3.697939241804311E-011
   108.050625000000        -3.711717476291498E-011
   108.264375000000        -3.726330885005238E-011
   108.478125000000        -3.741666479361266E-011
   108.691875000000        -3.757507161116234E-011
   108.905625000000        -3.773577442244119E-011
   109.119375000000        -3.789573530385929E-011
   109.333125000000        -3.805191984648649E-011
   109.546875000000        -3.820165712955015E-011
   109.760625000000        -3.834292596818783E-011
   109.974375000000        -3.847457247970643E-011
   110.188125000000        -3.859643165659186E-011
   110.401875000000        -3.870961050535082E-011
   110.615625000000        -3.881650414961372E-011
   110.829375000000        -3.892071911999705E-011
   111.043125000000        -3.902712124103091E-011
   111.256875000000        -3.914146908704119E-011
   111.470625000000        -3.927016846607554E-011
   111.684375000000        -3.941978705706331E-011
   111.898125000000        -3.959674039473882E-011
   112.111875000000        -3.980656319526518E-011
   112.325625000000        -4.005358133301307E-011
   112.539375000000        -4.034045603744992E-011
   112.753125000000        -4.066784255533296E-011
   112.966875000000        -4.103426347936397E-011
   113.180625000000        -4.143593023380560E-011
   113.394375000000        -4.186684522895004E-011
   113.608125000000        -4.231894165569877E-011
   113.821875000000        -4.278226374286260E-011
   114.035625000000        -4.324525474490458E-011
   114.249375000000        -4.369516927464127E-011
   114.463125000000        -4.411831522957362E-011
   114.676875000000        -4.450065227280934E-011
   114.890625000000        -4.482830389601849E-011
   115.104375000000        -4.508822727061329E-011
   115.318125000000        -4.526887075181227E-011
   115.531875000000        -4.536114437437544E-011
   115.745625000000        -4.535912668109350E-011
   115.959375000000        -4.526094968341185E-011
   116.173125000000        -4.506951956881744E-011
   116.386875000000        -4.479300436723511E-011
   116.600625000000        -4.444491622541877E-011
   116.814375000000        -4.404419563343926E-011
   117.028125000000        -4.361422758273385E-011
   117.241875000000        -4.318221875975664E-011
   117.455625000000        -4.277753305947017E-011
   117.669375000000        -4.243028518505434E-011
   117.883125000000        -4.216932102837777E-011
   118.096875000000        -4.202054878284619E-011
   118.310625000000        -4.200526394347656E-011
   118.524375000000        -4.213872640919481E-011
   118.738125000000        -4.242914204435780E-011
   118.951875000000        -4.287715751515533E-011
   119.165625000000        -4.347568111987603E-011
   119.379375000000        -4.421030002964436E-011
   119.593125000000        -4.505988148341616E-011
   119.806875000000        -4.599776061404909E-011
   120.020625000000        -4.699281036272773E-011
   120.234375000000        -4.801081666374636E-011
   120.448125000000        -4.901598119314896E-011
   120.661875000000        -4.997212195457352E-011
   120.875625000000        -5.084416528030827E-011
   121.089375000000        -5.159944945332526E-011
   121.303125000000        -5.220893539494204E-011
   121.516875000000        -5.264844337451798E-011
   121.730625000000        -5.289991287786736E-011
   121.944375000000        -5.295238196113338E-011
   122.158125000000        -5.280291467549039E-011
   122.371875000000        -5.245751785262517E-011
   122.585625000000        -5.193124571811783E-011
   122.799375000000        -5.124846125928046E-011
   123.013125000000        -5.044225975554412E-011
   123.226875000000        -4.955352158924286E-011
   123.440625000000        -4.862936886894298E-011
   123.654375000000        -4.772122856042167E-011
   123.868125000000        -4.688236187566839E-011