  -1.60312500000000        -5.965920752773584E-018
  -1.38937500000000        -5.956855727209929E-018
  -1.17562500000000        -5.923450079497704E-018
 -0.961875000000000        -5.846745693444819E-018
 -0.748125000000000        -5.933500390561266E-018
 -0.534375000000000        -7.987173409554590E-018
 -0.320625000000000        -2.125141297411532E-017
 -0.106875000000000        -8.222897933025611E-017
  0.106875000000000        -3.078680550690767E-016
  0.320625000000000        -1.015952593118185E-015
  0.534375000000000        -2.956366366621664E-015
  0.748125000000000        -7.688173088529416E-015
  0.961875000000000        -1.811186250230365E-014
   1.17562500000000        -3.913774220326386E-014
   1.38937500000000        -7.840661163428307E-014
   1.60312500000000        -1.469231495194254E-013
   1.81687500000000        -2.595308814781970E-013
   2.03062500000000        -4.350029220682313E-013
   2.24437500000000        -6.955509056064790E-013
   2.45812500000000        -1.065819711419812E-012
   2.67187500000000        -1.571151974315748E-012
   2.88562500000000        -2.235271585398601E-012
   3.09937500000000        -3.077438851492139E-012
   3.31312500000000        -4.109424745129224E-012
   3.52687500000000        -5.332629820675507E-012
   3.74062500000000        -6.735745550266636E-012
   3.95437500000000        -8.292925008813772E-012
   4.16812500000000        -9.963352434430236E-012
   4.38187500000000        -1.169206713412175E-011
   4.59562500000000        -1.341201849863645E-011
   4.80937500000000        -1.504705154813541E-011
   5.02312500000000        -1.651607629595914E-011
   5.23687500000000        -1.773705128054983E-011
   5.45062500000000        -1.863157812065287E-011
   5.66437500000000        -1.912827827644069E-011
   5.87812500000000        -1.916581073461540E-011
   6.09187500000000        -1.869420543160520E-011
   6.30562500000000        -1.767552200216555E-011
   6.51937500000000        -1.608301891294846E-011
   6.73312500000000        -1.390029549039459E-011
   6.94687500000000        -1.111950998954431E-011
   7.16062500000000        -7.740307487327973E-012
   7.37437500000000        -3.768871347616123E-012
   7.58812500000000         7.819146070403178E-013
   7.80187500000000         5.891902818778590E-012
   8.01562500000000         1.153233260984091E-011
   8.22937500000000         1.766449418753805E-011
   8.44312500000000         2.423865950723856E-011
   8.65687500000000         3.119349793584443E-011
   8.87062500000000         3.845683989507581E-011
   9.08437500000000         4.594753725989726E-011
   9.29812500000000         5.357893754005386E-011
   9.51187500000000         6.126290155154139E-011
   9.72562500000000         6.891485922011027E-011
   9.93937500000000         7.645865025131361E-011
   10.1531250000000         8.383102706387721E-011
   10.3668750000000         9.098527361137359E-011
   10.5806250000000         9.789308419040885E-011
   10.7943750000000         1.045453672204454E-010
   11.0081250000000         1.109513025564032E-010
   11.2218750000000         1.171363280093429E-010
   11.4356250000000         1.231396308685164E-010
   11.6493750000000         1.290112055168416E-010
   11.8631250000000         1.348092198085508E-010
   12.0768750000000         1.405978334640638E-010
   12.2906250000000         1.464456089820516E-010
   12.5043750000000         1.524240526990872E-010
   12.7181250000000         1.586066707231412E-010
   12.9318750000000         1.650671766095229E-010
   13.1456250000000         1.718777436912807E-010
   13.3593750000000         1.791059631246095E-010
   13.5731250000000         1.868111086169874E-010
   13.7868750000000         1.950397951690403E-010
   14.0006250000000         2.038213077367054E-010
   14.2143750000000         2.131632754081155E-010
   14.4281250000000         2.230483840380837E-010
   14.6418750000000         2.334328380252323E-010
   14.8556250000000         2.442465814270780E-010
   15.0693750000000         2.553960836429049E-010
   15.2831250000000         2.667691185180426E-010
   15.4968750000000         2.782412782754190E-010
   15.7106250000000         2.896836951634039E-010
   15.9243750000000         3.009706927223906E-010
   16.1381250000000         3.119872992658588E-010
   16.3518750000000         3.226354572232155E-010
   16.5656250000000         3.328384914218987E-010
   16.7793750000000         3.425433302987628E-010
   16.9931250000000         3.517214077627536E-010
   17.2068750000000         3.603678188343995E-010
   17.4206250000000         3.684994671956070E-010
   17.6343750000000         3.761525932757147E-010
   17.8481250000000         3.833803553997199E-010
   18.0618750000000         3.902505915131991E-010
   18.2756250000000         3.968436828982323E-010
   18.4893750000000         4.032506280812100E-010
   18.7031250000000         4.095711074015135E-010
   18.9168750000000         4.159109610932509E-010
   19.1306250000000         4.223789108449688E-010
   19.3443750000000         4.290824182763236E-010
   19.5581250000000         4.361228026047413E-010
   19.7718750000000         4.435894983837193E-010
   19.9856250000000         4.515542277169010E-010
   20.1993750000000         4.600660072775220E-010
   20.4131250000000         4.691469891195523E-010
   20.6268750000000         4.787903774626201E-010
   20.8406250000000         4.889604570482839E-010
   21.0543750000000         4.995949723949599E-010
   21.2681250000000         5.106096675825223E-010
   21.4818750000000         5.219049616077680E-010
   21.6956250000000         5.333732007062463E-010
   21.9093750000000         5.449067742167870E-010
   22.1231250000000         5.564052681771736E-010
   22.3368750000000         5.677815676528326E-010
   22.5506250000000         5.789662121700176E-010
   22.7643750000000         5.899096849646189E-010
   22.9781250000000         6.005830780819770E-010
   23.1918750000000         6.109764365397760E-010
   23.4056250000000         6.210964116646663E-010
   23.6193750000000         6.309626182125303E-010
   23.8331250000000         6.406040368237447E-010
   24.0468750000000         6.500554447560592E-010
   24.2606250000000         6.593543277133033E-010
   24.4743750000000         6.685382976875508E-010
   24.6881250000000         6.776431411980098E-010
   24.9018750000000         6.867013810797492E-010
   25.1156250000000         6.957411962541301E-010
   25.3293750000000         7.047853314617643E-010
   25.5431250000000         7.138502628166069E-010
   25.7568750000000         7.229454504085108E-010
   25.9706250000000         7.320726501660089E-010
   26.1843750000000         7.412253063744219E-010
   26.3981250000000         7.503883105016874E-010
   26.6118750000000         7.595382967349958E-010
   26.8256250000000         7.686443827396098E-010
   27.0393750000000         7.776693850316612E-010
   27.2531250000000         7.865715656937665E-010
   27.4668750000000         7.953067168566853E-010
   27.6806250000000         8.038303596259247E-010
   27.8943750000000         8.120998883187723E-010
   28.1081250000000         8.200762868088382E-010
   28.3218750000000         8.277259875322632E-010
   28.5356250000000         8.350214639978846E-010
   28.7493750000000         8.419422355250968E-010
   28.9631250000000         8.484746915863163E-010
   29.1768750000000         8.546120422071131E-010
   29.3906250000000         8.603535255737519E-010
   29.6043750000000         8.657039024462243E-010
   29.8181250000000         8.706722800007169E-010
   30.0318750000000         8.752713147596695E-010
   30.2456250000000         8.795157231210750E-010
   30.4593750000000         8.834208306318548E-010
   30.6731250000000         8.870011934817105E-010
   30.8868750000000         8.902691195642884E-010
   31.1006250000000         8.932330668446634E-010
   31.3143750000000         8.958966981433372E-010
   31.5281250000000         8.982577791590661E-010
   31.7418750000000         9.003079292222802E-010
   31.9556250000000         9.020331039982411E-010
   32.1693750000000         9.034144421647096E-010
   32.3831250000000         9.044300432262354E-010
   32.5968750000000         9.050568851284307E-010
   32.8106250000000         9.052732105580556E-010
   33.0243750000000         9.050606112851022E-010
   33.2381250000000         9.044056855121588E-010
   33.4518750000000         9.033008778786293E-010
   33.6656250000000         9.017445051952915E-010
   33.8793750000000         8.997399130885225E-010
   34.0931250000000         8.972934980712612E-010
   34.3068750000000         8.944124315243061E-010
   34.5206250000000         8.911024522413635E-010
   34.7343750000000         8.873657483562517E-010
   34.9481250000000         8.831999600082954E-010
   35.1618750000000         8.785981850048445E-010
   35.3756250000000         8.735505210548704E-010
   35.5893750000000         8.680468693158347E-010
   35.8031250000000         8.620804059743957E-010
   36.0168750000000         8.556517364262642E-010
   36.2306250000000         8.487724224749131E-010
   36.4443750000000         8.414673193378411E-010
   36.6581250000000         8.337753158047731E-010
   36.8718750000000         8.257473178550607E-010
   37.0856250000000         8.174425020043322E-010
   37.2993750000000         8.089217262276869E-010
   37.5131250000000         8.002398449129409E-010
   37.7268750000000         7.914371432221196E-010
   37.9406250000000         7.825310802063846E-010
   38.1543750000000         7.735102458878190E-010
   38.3681250000000         7.643301723677312E-010
   38.5818750000000         7.549134219065184E-010
   38.7956250000000         7.451528660028640E-010
   39.0093750000000         7.349185588964680E-010
   39.2231250000000         7.240677407572353E-010
   39.4368750000000         7.124564542582916E-010
   39.6506250000000         6.999517902928341E-010
   39.8643750000000         6.864431496111813E-010
   40.0781250000000         6.718514326106183E-010
   40.2918750000000         6.561348589333398E-010
   40.5056250000000         6.392911497010982E-010
   40.7193750000000         6.213561296503888E-010
   40.9331250000000         6.023986785685035E-010
   41.1468750000000         5.825130833604813E-010
   41.3606250000000         5.618100904393973E-010
   41.5743750000000         5.404073421049277E-010
   41.7881250000000         5.184203418313345E-010
   42.0018750000000         4.959548184378165E-010
   42.2156250000000         4.731006178396797E-010
   42.4293750000000         4.499276114189884E-010
   42.6431250000000         4.264830772543334E-010
   42.8568750000000         4.027903408770211E-010
   43.0706250000000         3.788479983020656E-010
   43.2843750000000         3.546298282687861E-010
   43.4981250000000         3.300842570928736E-010
   43.7118750000000         3.051344938242079E-010
   43.9256250000000         2.796790523324663E-010
   44.1393750000000         2.535931890867789E-010
   44.3531250000000         2.267317111787931E-010
   44.5668750000000         1.989338389445091E-010
   44.7806250000000         1.700301511432497E-010
   44.9943750000000         1.398515561807030E-010
   45.2081250000000         1.082397463312066E-010
   45.4218750000000         7.505843209195684E-011
   45.6356250000000         4.020393944608681E-011
   45.8493750000000         3.614256969918403E-012
   46.0631250000000        -3.472467949593256E-011
   46.2768750000000        -7.477659295713004E-011
   46.4906250000000        -1.164566522453878E-010
   46.7043750000000        -1.596372142824243E-010
   46.9181250000000        -2.041576108028662E-010
   47.1318750000000        -2.498361700935518E-010
   47.3456250000000        -2.964838525444367E-010
   47.5593750000000        -3.439177132888937E-010
   47.7731250000000        -3.919731073700131E-010
   47.9868750000000        -4.405130546748215E-010
   48.2006250000000        -4.894345191486583E-010
   48.4143750000000        -5.386710520616507E-010
   48.6281250000000        -5.881924180303859E-010
   48.8418750000000        -6.380014140293138E-010
   49.0556250000000        -6.881288543017519E-010
   49.2693750000000        -7.386279576620326E-010
   49.4831250000000        -7.895689531832429E-010
   49.6968750000000        -8.410344193423273E-010
   49.9106250000000        -8.931156985697748E-010
   50.1243750000000        -9.459108975599861E-010
   50.3381250000000        -9.995236981880568E-010
   50.5518750000000        -1.054062832237348E-009
   50.7656250000000        -1.109641173660336E-009
   50.9793750000000        -1.166374669213301E-009
   51.1931250000000        -1.224379893038910E-009
   51.4068750000000        -1.283771080005338E-009
   51.6206250000000        -1.344655674267112E-009
   51.8343750000000        -1.407129620125024E-009
   52.0481250000000        -1.471272632019445E-009
   52.2618750000000        -1.537143933263327E-009
   52.4756250000000        -1.604779426689175E-009
   52.6893750000000        -1.674190354522681E-009
   52.9031250000000        -1.745363849388406E-009
   53.1168750000000        -1.818265435715466E-009
   53.3306250000000        -1.892843060432682E-009
   53.5443750000000        -1.969032301504558E-009
   53.7581250000000        -2.046761939625107E-009
   53.9718750000000        -2.125959693093553E-009
   54.1856250000000        -2.206557126244352E-009
   54.3993750000000        -2.288493452564893E-009
   54.6131250000000        -2.371718182883319E-009
   54.8268750000000        -2.456192032175422E-009
   55.0406250000000        -2.541886752989346E-009
   55.2543750000000        -2.628783605606226E-009
   55.4681250000000        -2.716871177819735E-009
   55.6818750000000        -2.806142396247542E-009
   55.8956250000000        -2.896591617662163E-009
   56.1093750000000        -2.988211634892167E-009
   56.3231250000000        -3.080991348425334E-009
   56.5368750000000        -3.174914239907730E-009
   56.7506250000000        -3.269958196375479E-009
   56.9643750000000        -3.366096976707001E-009
   57.1781250000000        -3.463303406943941E-009
   57.3918750000000        -3.561555136761995E-009
   57.6056250000000        -3.660842033343738E-009
   57.8193750000000        -3.761175844711081E-009
   58.0331250000000        -3.862600540314430E-009
   58.2468750000000        -3.965202619891386E-009
   58.4606250000000        -4.069119465504113E-009
   58.6743750000000        -4.174544524193170E-009
   58.8881250000000        -4.281726690862363E-009
   59.1018750000000        -4.390962404596487E-009
   59.3156250000000        -4.502579513866993E-009
   59.5293750000000        -4.616912621852612E-009
   59.7431250000000        -4.734270635622830E-009
   59.9568750000000        -4.854898392904284E-009
   60.1706250000000        -4.978936597901941E-009
   60.3843750000000        -5.106384116980933E-009
   60.5981250000000        -5.237068153690080E-009
   60.8118750000000        -5.370627697193937E-009
   61.0256250000000        -5.506515631706812E-009
   61.2393750000000        -5.644022631230179E-009
   61.4531250000000        -5.782324459095762E-009
   61.6668750000000        -5.920551937285174E-009
   61.8806250000000        -6.057879165001325E-009
   62.0943750000000        -6.193622683225441E-009
   62.3081250000000        -6.327342733076199E-009
   62.5218750000000        -6.458933654710213E-009
   62.7356250000000        -6.588692096885536E-009
   62.9493750000000        -6.717350724912309E-009
   63.1631250000000        -6.846067798451757E-009
   63.3768750000000        -6.976367100539706E-009
   63.5906250000000        -7.110025983012416E-009
   63.8043750000000        -7.248916675448613E-009
   64.0181250000000        -7.394811189312760E-009
   64.2318750000000        -7.549166181636743E-009
   64.4456250000000        -7.712908508787073E-009
   64.6593750000000        -7.886245982789112E-009
   64.8731250000000        -8.068528271871430E-009
   65.0868750000000        -8.258180970788271E-009
   65.3006250000000        -8.452731458630042E-009
   65.5143750000000        -8.648938244621744E-009
   65.7281250000000        -8.843025053708763E-009
   65.9418750000000        -9.031010978811635E-009
   66.1556250000000        -9.209115680576668E-009
   66.3693750000000        -9.374207735340135E-009
   66.5831250000000        -9.524255450296234E-009
   66.7968750000000        -9.658732754898506E-009
   67.0106250000000        -9.778930882984988E-009
   67.2243750000000        -9.888129487452966E-009
   67.4381250000000        -9.991587779859703E-009
   67.6518750000000        -1.009632958901447E-008
   67.8656250000000        -1.021071307018642E-008
   68.0793750000000        -1.034379544145576E-008
   68.2931250000000        -1.050452594839533E-008
   68.5068750000000        -1.070082076590278E-008
   68.7206250000000        -1.093859258820465E-008
   68.9343750000000        -1.122082377421131E-008
   69.1481250000000        -1.154677819599313E-008
   69.3618750000000        -1.191144967116211E-008
   69.5756250000000        -1.230533473009794E-008
   69.7893750000000        -1.271460179000039E-008
   70.0031250000000        -1.312170157812992E-008
   70.2168750000000        -1.350643073251784E-008
   70.4306250000000        -1.384742046645955E-008
   70.6443750000000        -1.412398058672793E-008
   70.8581250000000        -1.431818606323610E-008
   71.0718750000000        -1.441705450251865E-008
   71.2856250000000        -1.441463145896474E-008
   71.4993750000000        -1.431377867543890E-008
   71.7131250000000        -1.412745398945338E-008
   71.9268750000000        -1.387928136632253E-008
   72.1406250000000        -1.360323828547263E-008
   72.3543750000000        -1.334233643155457E-008
   72.5681250000000        -1.314623937388540E-008
   72.7818750000000        -1.306784486106161E-008
   72.9956250000000        -1.315895673491398E-008
   73.2093750000000        -1.346527607703782E-008
   73.4231250000000        -1.402104327982041E-008
   73.6368750000000        -1.484375644437956E-008
   73.8506250000000        -1.592946283354911E-008
   74.0643750000000        -1.724916136431261E-008
   74.2781250000000        -1.874685420729366E-008
   74.4918750000000        -2.033973421819580E-008
   74.7056250000000        -2.192089105932056E-008
   74.9193750000000        -2.336475615895470E-008
   75.1331250000000        -2.453529471534650E-008
   75.3468750000000        -2.529669567807457E-008
   75.5606250000000        -2.552602976945821E-008
   75.7743750000000        -2.512705963415595E-008
   75.9881250000000        -2.404412370326104E-008
   76.2018750000000        -2.227480577524527E-008
   76.4156250000000        -1.987997700618524E-008
   76.6293750000000        -1.698978335291848E-008
   76.8431250000000        -1.380427317445102E-008
   77.0568750000000        -1.058762904987597E-008
   77.2706250000000        -7.655386026475029E-009
   77.4843750000000        -5.354573143291192E-009
   77.6981250000000        -4.037373796961745E-009
   77.9118750000000        -4.029620323205196E-009
   78.1256250000000        -5.596158029349798E-009
   78.3393750000000        -8.905765047120244E-009
   78.5531250000000        -1.399881806237455E-008
   78.7668750000000        -2.076118441913050E-008
   78.9806250000000        -2.890782288211099E-008
   79.1943750000000        -3.797925285374917E-008
   79.4081250000000        -4.735337265129466E-008
   79.6218750000000        -5.627408782409120E-008
   79.8356250000000        -6.389688487625746E-008
   80.0493750000000        -6.934994171672904E-008
   80.2631250000000        -7.180770718849573E-008
   80.4768750000000        -7.057225290066266E-008
   80.6906250000000        -6.515625693471311E-008
   80.9043750000000        -5.536038354005820E-008
   81.1181250000000        -4.133722803634259E-008
   81.3318750000000        -2.363403244929135E-008
   81.5456250000000        -3.207128320925317E-009
   81.7593750000000         1.859743649298649E-008
   81.9731250000000         4.010041473254017E-008
   82.1868750000000         5.938352280234593E-008
   82.4006250000000         7.441848420295290E-008
   82.6143750000000         8.322472156953773E-008
   82.8281250000000         8.404607730585333E-008
   83.0418750000000         7.553395255606614E-008
   83.2556250000000         5.692197395913051E-008
   83.4693750000000         2.817602125207179E-008
   83.6831250000000        -9.896585283530726E-009
   83.8968750000000        -5.559357472537309E-008
   84.1106250000000        -1.063319167281971E-007
   84.3243750000000        -1.587375405506832E-007
   84.5381250000000        -2.088130300203057E-007
   84.7518750000000        -2.521794974235605E-007
   84.9656250000000        -2.843821636954250E-007
   85.1793750000000        -3.012425813428378E-007
   85.3931250000000        -2.992344918440717E-007
   85.6068750000000        -2.758555837745218E-007
   85.8206250000000        -2.299644362289216E-007
   86.0343750000000        -1.620511330487068E-007
   86.2481250000000        -7.441171390210245E-008
   86.4618750000000         2.879908297392427E-008
   86.6756250000000         1.416555123748355E-007
   86.8893750000000         2.566986137512389E-007
   87.1031250000000         3.653229621364382E-007
   87.3168750000000         4.582993789673157E-007
   87.5306250000000         5.264085199732611E-007
   87.7443750000000         5.611488872077896E-007
   87.9581250000000         5.554731129578433E-007
   88.1718750000000         5.044992538698203E-007
   88.3856250000000         4.061401089147069E-007
   88.5993750000000         2.615938463306749E-007
   88.8131250000000         7.564383800121238E-008
   89.0268750000000        -1.432753900359764E-007
   89.2406250000000        -3.832760565740635E-007
   89.4543750000000        -6.294922117148224E-007
   89.6681250000000        -8.648261477538872E-007
   89.8818750000000        -1.070939693860918E-006
   90.0956250000000        -1.229443397337997E-006
   90.3093750000000        -1.323217568568207E-006
   90.5231250000000        -1.337783193118771E-006
   90.7368750000000        -1.262629211656182E-006
   90.9506250000000        -1.092396847626845E-006
   91.1643750000000        -8.278224194512077E-007
   91.3781250000000        -4.763479102782951E-007
   91.5918750000000        -5.232351659065766E-008
   91.8056250000000         4.232520041299877E-007
   92.0193750000000         9.234800837307439E-007
   92.2331250000000         1.416795553978540E-006
   92.4468750000000         1.868645734280592E-006
   92.6606250000000         2.243542599600034E-006
   92.8743750000000         2.507383076703088E-006
   93.0881250000000         2.629904778253788E-006
   93.3018750000000         2.587123403003267E-006
   93.5156250000000         2.363585563286305E-006
   93.7293750000000         1.954268474775705E-006
   93.9431250000000         1.365966721180962E-006
   94.1568750000000         6.180264856143265E-007
   94.3706250000000        -2.576812158223648E-007
   94.5843750000000        -1.217615848299268E-006
   94.7981250000000        -2.208270008334717E-006
   95.0118750000000        -3.168684172875300E-006
   95.2256250000000        -4.033682146400403E-006
   95.4393750000000        -4.737680995003982E-006
   95.6531250000000        -5.218879473549840E-006
   95.8668750000000        -5.423587821018276E-006
   96.0806250000000        -5.310432653703245E-006
   96.2943750000000        -4.854156347824069E-006
   96.5081250000000        -4.048732841738569E-006
   96.7218750000000        -2.909542358419915E-006
   96.9356250000000        -1.474386225284451E-006
   97.1493750000000         1.968213254908310E-007
   97.3631250000000         2.023777001908068E-006
   97.5768750000000         3.908938655699366E-006
   97.7906250000000         5.742023564997484E-006
   98.0043750000000         7.405685561030708E-006
   98.2181250000000         8.782114466715201E-006
   98.4318750000000         9.760223478748736E-006
   98.6456250000000         1.024302737138832E-005
   98.8593750000000         1.015477180033954E-005
   99.0731250000000         9.447355689327775E-006
   99.2868750000000         8.105597587366397E-006
   99.5006250000000         6.150934366984205E-006
   99.7143750000000         3.643206340984707E-006
   99.9281250000000         6.802746449554225E-007
   100.141875000000        -2.604669398652435E-006
   100.355625000000        -6.048112880001836E-006
   100.569375000000        -9.463418029420220E-006
   100.783125000000        -1.264993609142575E-005
   100.996875000000        -1.540363351279630E-005
   101.210625000000        -1.752870777450786E-005
   101.424375000000        -1.884957660372312E-005
   101.638125000000        -1.922256212023827E-005
   101.851875000000        -1.854656630619367E-005
   102.065625000000        -1.677204962425622E-005
   102.279375000000        -1.390768189882072E-005
   102.493125000000        -1.002413242509674E-005
   102.706875000000        -5.254600834683322E-006
   102.920625000000         2.081447562490318E-007
   103.134375000000         6.118268768020946E-006
   103.348125000000         1.218675583197931E-005
   103.561875000000         1.809433287228477E-005
   103.775625000000         2.350688446983696E-005
   103.989375000000         2.809265369864175E-005
   104.203125000000         3.154038649553937E-005
   104.416875000000         3.357748478126627E-005
   104.630625000000         3.398718852716722E-005
   104.844375000000         3.262381369105647E-005
   105.058125000000         2.942513247993503E-005
   105.271875000000         2.442109285395438E-005
   105.485625000000         1.773823084471278E-005
   105.699375000000         9.599324843184418E-006
   105.913125000000         3.180661270950409E-007
   106.126875000000        -9.711236432383214E-006
   106.340625000000        -2.002864924007349E-005
   106.554375000000        -3.012779146600598E-005
   106.768125000000        -3.947845697481115E-005
   106.981875000000        -4.755174176516999E-005
   107.195625000000        -5.384657729820600E-005
   107.409375000000        -5.791645527403113E-005
   107.623125000000        -5.939506625551491E-005
   107.836875000000        -5.801956665689721E-005
   108.050625000000        -5.365023745809634E-005
   108.264375000000        -4.628540289117117E-005
   108.478125000000        -3.607063559275867E-005
   108.691875000000        -2.330148181604371E-005
   108.905625000000        -8.419190050065222E-006
   109.119375000000         8.000788905084396E-006
   109.333125000000         2.526745181111504E-005
   109.546875000000         4.259963818828495E-005
   109.760625000000         5.915743623548825E-005
   109.974375000000         7.407854350745630E-005
   110.188125000000         8.651822704184537E-005
   110.401875000000         9.569126432669636E-005
   110.615625000000         1.009140334730280E-004
   110.829375000000         1.016447721703467E-004
   111.043125000000         9.751995349569818E-005
   111.256875000000         8.838474375169021E-005
   111.470625000000         7.431562197799657E-005
   111.684375000000         5.563345782621876E-005
   111.898125000000         3.290566487851582E-005
   112.111875000000         6.936465716348300E-006
   112.325625000000        -2.125518730539785E-005
   112.539375000000        -5.046991219234853E-005
   112.753125000000        -7.937366659217565E-005
   112.966875000000        -1.065535856824446E-004
   113.180625000000        -1.305818522050310E-004
   113.394375000000        -1.500849756703433E-004
   113.608125000000        -1.638153585449985E-004
   113.821875000000        -1.707216523348301E-004
   114.035625000000        -1.700141894694610E-004
   114.249375000000        -1.612217453712994E-004
   114.463125000000        -1.442360581577227E-004
   114.676875000000        -1.193409195347966E-004
   114.890625000000        -8.722324573515018E-005
   115.104375000000        -4.896432468288948E-005
   115.318125000000        -6.010384344431075E-006
   115.531875000000         3.987730580244256E-005
   115.745625000000         8.669145726451231E-005
   115.959375000000         1.322644335572130E-004
   116.173125000000         1.743670276056254E-004
   116.386875000000         2.108158705978757E-004
   116.600625000000         2.395842630733867E-004
   116.814375000000         2.589107396388992E-004
   117.028125000000         2.673994982956255E-004
   117.241875000000         2.641069719595136E-004
   117.455625000000         2.486093025300244E-004
   117.669375000000         2.210462854077544E-004
   117.883125000000         1.821384523082081E-004
   118.096875000000         1.331753002599931E-004
   118.310625000000         7.597418496908462E-005
   118.524375000000         1.281099367372938E-005
   118.738125000000        -5.367469633031123E-005
   118.951875000000        -1.205957779165474E-004
   119.165625000000        -1.849496026790735E-004
   119.379375000000        -2.437592908902408E-004
   119.593125000000        -2.942171867780551E-004
   119.806875000000        -3.338230103183155E-004
   120.020625000000        -3.605094059713794E-004
   120.234375000000        -3.727481595666233E-004
   120.448125000000        -3.696313199201289E-004
   120.661875000000        -3.509227695069513E-004
   120.875625000000        -3.170773639536265E-004
   121.089375000000        -2.692265107760993E-004
   121.303125000000        -2.091308791284137E-004
   121.516875000000        -1.391027145324004E-004
   121.730625000000        -6.190186772786050E-005
   121.944375000000         1.938896391599466E-005
   122.158125000000         1.015032237076067E-004
   122.371875000000         1.811364835746607E-004
   122.585625000000         2.550919626021050E-004
   122.799375000000         3.204183002702045E-004
   123.013125000000         3.745329191428023E-004
   123.226875000000         4.153252925276086E-004
   123.440625000000         4.412357137436380E-004
   123.654375000000         4.513066568987481E-004
   123.868125000000         4.452054242061093E-004