  -1.60312500000000         1.984069067657848E-019
  -1.38937500000000         5.327450557465688E-019
  -1.17562500000000         9.476827925865328E-019
 -0.961875000000000        -3.577641435941776E-018
 -0.748125000000000        -4.305009151537906E-017
 -0.534375000000000        -2.453665260819790E-016
 -0.320625000000000        -1.044305227133519E-015
 -0.106875000000000        -3.603959030297019E-015
  0.106875000000000        -1.055932067571507E-014
  0.320625000000000        -2.697208408367692E-014
  0.534375000000000        -6.109543062750025E-014
  0.748125000000000        -1.245786711396516E-013
  0.961875000000000        -2.320509484559017E-013
   1.17562500000000        -3.992857093545970E-013
   1.38937500000000        -6.401459529646316E-013
   1.60312500000000        -9.650273317301988E-013
   1.81687500000000        -1.375915923669099E-012
   2.03062500000000        -1.862063660164036E-012
   2.24437500000000        -2.401468016006800E-012
   2.45812500000000        -2.956144199338797E-012
   2.67187500000000        -3.475390815622810E-012
   2.88562500000000        -3.896942621895268E-012
   3.09937500000000        -4.154574796616692E-012
   3.31312500000000        -4.185228836971624E-012
   3.52687500000000        -3.937718224024557E-012
   3.74062500000000        -3.372004600794897E-012
   3.95437500000000        -2.478666903470012E-012
   4.16812500000000        -1.275738018810304E-012
   4.38187500000000         1.918037862299252E-013
   4.59562500000000         1.858613645569122E-012
   4.80937500000000         3.633436376052189E-012
   5.02312500000000         5.429084110295392E-012
   5.23687500000000         7.144995467736948E-012
   5.45062500000000         8.707263019792070E-012
   5.66437500000000         1.004983846217243E-011
   5.87812500000000         1.114353705955164E-011
   6.09187500000000         1.197394073098870E-011
   6.30562500000000         1.255923471350378E-011
   6.51937500000000         1.291819750814096E-011
   6.73312500000000         1.308983037890996E-011
   6.94687500000000         1.309759860723825E-011
   7.16062500000000         1.296226285000982E-011
   7.37437500000000         1.268027364195985E-011
   7.58812500000000         1.223930250444175E-011
   7.80187500000000         1.160981535403653E-011
   8.01562500000000         1.076257116535882E-011
   8.22937500000000         9.674169655011904E-012
   8.44312500000000         8.331821404855440E-012
   8.65687500000000         6.752240333789671E-012
   8.87062500000000         4.976145124231344E-012
   9.08437500000000         3.079575452771578E-012
   9.29812500000000         1.150466401690356E-012
   9.51187500000000        -7.005252716374991E-013
   9.72562500000000        -2.367451452206612E-012
   9.93937500000000        -3.751756093478830E-012
   10.1531250000000        -4.774233769126674E-012
   10.3668750000000        -5.393762860881642E-012
   10.5806250000000        -5.592750978394809E-012
   10.7943750000000        -5.391830792740031E-012
   11.0081250000000        -4.835071479477510E-012
   11.2218750000000        -3.977376287074771E-012
   11.4356250000000        -2.883145410315432E-012
   11.6493750000000        -1.610021142717498E-012
   11.8631250000000        -2.057524423083003E-013
   12.0768750000000         1.294880201903898E-012
   12.2906250000000         2.859944851082143E-012
   12.5043750000000         4.468778649565345E-012
   12.7181250000000         6.082152863767143E-012
   12.9318750000000         7.661816115758719E-012
   13.1456250000000         9.141188913019805E-012
   13.3593750000000         1.043851707503835E-011
   13.5731250000000         1.145878315351967E-011
   13.7868750000000         1.209974522047534E-011
   14.0006250000000         1.226672365502263E-011
   14.2143750000000         1.188776763713219E-011
   14.4281250000000         1.092920996530698E-011
   14.6418750000000         9.395890202320791E-012
   14.8556250000000         7.348778801953604E-012
   15.0693750000000         4.892476384491513E-012
   15.2831250000000         2.169553867270658E-012
   15.4968750000000        -6.509844537035473E-013
   15.7106250000000        -3.401674722431078E-012
   15.9243750000000        -5.918068805168614E-012
   16.1381250000000        -8.064262340940215E-012
   16.3518750000000        -9.742457698133850E-012
   16.5656250000000        -1.090403905351665E-011
   16.7793750000000        -1.152926726990200E-011
   16.9931250000000        -1.163662293015803E-011
   17.2068750000000        -1.126665075340358E-011
   17.4206250000000        -1.047345370897984E-011
   17.6343750000000        -9.309973390281788E-012
   17.8481250000000        -7.825199095002714E-012
   18.0618750000000        -6.065887835744658E-012
   18.2756250000000        -4.074196139528145E-012
   18.4893750000000        -1.892484939345507E-012
   18.7031250000000         4.240483471106275E-013
   18.9168750000000         2.803648246897052E-012
   19.1306250000000         5.155668922664694E-012
   19.3443750000000         7.373250371737137E-012
   19.5581250000000         9.330711273844136E-012
   19.7718750000000         1.090049843339249E-011
   19.9856250000000         1.197333010366026E-011
   20.1993750000000         1.245817380054747E-011
   20.4131250000000         1.230943403659535E-011
   20.6268750000000         1.152773144766796E-011
   20.8406250000000         1.016514096809511E-011
   21.0543750000000         8.321025210050961E-012
   21.2681250000000         6.141488188407886E-012
   21.4818750000000         3.785262024853902E-012
   21.6956250000000         1.429979266108652E-012
   21.9093750000000        -7.677887930768961E-013
   22.1231250000000        -2.674480018679240E-012
   22.3368750000000        -4.194766711923698E-012
   22.5506250000000        -5.278543909358417E-012
   22.7643750000000        -5.911254520542401E-012
   22.9781250000000        -6.129139978741790E-012
   23.1918750000000        -5.983561884364557E-012
   23.4056250000000        -5.554252224538986E-012
   23.6193750000000        -4.919950735466319E-012
   23.8331250000000        -4.158778239298830E-012
   24.0468750000000        -3.338325777027875E-012
   24.2606250000000        -2.515109234192180E-012
   24.4743750000000        -1.731846955450719E-012
   24.6881250000000        -1.020017180700606E-012
   24.9018750000000        -4.032629769745758E-013
   25.1156250000000         9.455289773285951E-014
   25.3293750000000         4.551668620453303E-013
   25.5431250000000         6.622205710823177E-013
   25.7568750000000         7.006527130028655E-013
   25.9706250000000         5.571672851435149E-013
   26.1843750000000         2.264856901351993E-013
   26.3981250000000        -2.849236391146614E-013
   26.6118750000000        -9.608476579167087E-013
   26.8256250000000        -1.774685408864403E-012
   27.0393750000000        -2.688206393900011E-012
   27.2531250000000        -3.655787403987410E-012
   27.4668750000000        -4.629300364407974E-012
   27.6806250000000        -5.561814195469328E-012
   27.8943750000000        -6.415763133279309E-012
   28.1081250000000        -7.150458966915973E-012
   28.3218750000000        -7.752933380972262E-012
   28.5356250000000        -8.201195601444904E-012
   28.7493750000000        -8.499090258062653E-012
   28.9631250000000        -8.647702946897280E-012
   29.1768750000000        -8.664376822315165E-012
   29.3906250000000        -8.560177704794398E-012
   29.6043750000000        -8.360848244172523E-012
   29.8181250000000        -8.083833970952911E-012
   30.0318750000000        -7.761735044361744E-012
   30.2456250000000        -7.426303628409588E-012
   30.4593750000000        -7.107711192912736E-012
   30.6731250000000        -6.838327384774065E-012
   30.8868750000000        -6.653207257261151E-012
   31.1006250000000        -6.573038825269932E-012
   31.3143750000000        -6.621941147110056E-012
   31.5281250000000        -6.805369502103665E-012
   31.7418750000000        -7.112758928930569E-012
   31.9556250000000        -7.525578129223839E-012
   32.1693750000000        -8.004915945502818E-012
   32.3831250000000        -8.508801408026117E-012
   32.5968750000000        -8.985005384400033E-012
   32.8106250000000        -9.387907720251970E-012
   33.0243750000000        -9.681233883776738E-012
   33.2381250000000        -9.846598638022961E-012
   33.4518750000000        -9.883438729122201E-012
   33.6656250000000        -9.810212749061827E-012
   33.8793750000000        -9.670211781946258E-012
   34.0931250000000        -9.513251222705490E-012
   34.3068750000000        -9.387645806677158E-012
   34.5206250000000        -9.339753954633663E-012
   34.7343750000000        -9.391404405443447E-012
   34.9481250000000        -9.542473223170584E-012
   35.1618750000000        -9.759205422993600E-012
   35.3756250000000        -9.980239560835677E-012
   35.5893750000000        -1.012959288462062E-011
   35.8031250000000        -1.011634254243623E-011
   36.0168750000000        -9.863288466871003E-012
   36.2306250000000        -9.319280423447987E-012
   36.4443750000000        -8.468118512970758E-012
   36.6581250000000        -7.353935455399613E-012
   36.8718750000000        -6.058734538814079E-012
   37.0856250000000        -4.726731390514265E-012
   37.2993750000000        -3.526129215200821E-012
   37.5131250000000        -2.644404797705027E-012
   37.7268750000000        -2.262277211633000E-012
   37.9406250000000        -2.512008269573715E-012
   38.1543750000000        -3.485280563999401E-012
   38.3681250000000        -5.180166284372869E-012
   38.5818750000000        -7.524895973602071E-012
   38.7956250000000        -1.036902875257786E-011
   39.0093750000000        -1.349362405578514E-011
   39.2231250000000        -1.664442906245368E-011
   39.4368750000000        -1.955342083267094E-011
   39.6506250000000        -2.197411505652828E-011
   39.8643750000000        -2.370537410141580E-011
   40.0781250000000        -2.461982398340362E-011
   40.2918750000000        -2.466970196555301E-011
   40.5056250000000        -2.388560322227316E-011
   40.7193750000000        -2.237802605761308E-011
   40.9331250000000        -2.031436136684848E-011
   41.1468750000000        -1.789044616660916E-011
   41.3606250000000        -1.531560017002690E-011
   41.5743750000000        -1.278756680803459E-011
   41.7881250000000        -1.047347206845886E-011
   42.0018750000000        -8.507007659026626E-012
   42.2156250000000        -6.977727383879597E-012
   42.4293750000000        -5.942948467501318E-012
   42.6431250000000        -5.432420782396285E-012
   42.8568750000000        -5.463149909267390E-012
   43.0706250000000        -6.037056643850899E-012
   43.2843750000000        -7.165853810933399E-012
   43.4981250000000        -8.846583200534096E-012
   43.7118750000000        -1.106781788454693E-011
   43.9256250000000        -1.379808907115688E-011
   44.1393750000000        -1.697593734381880E-011
   44.3531250000000        -2.049493412774144E-011
   44.5668750000000        -2.420306976041588E-011
   44.7806250000000        -2.790399039795262E-011
   44.9943750000000        -3.136888367854110E-011
   45.2081250000000        -3.435186243435298E-011
   45.4218750000000        -3.662098355861234E-011
   45.6356250000000        -3.797823232423433E-011
   45.8493750000000        -3.828605565453057E-011
   46.0631250000000        -3.749205830929633E-011
   46.2768750000000        -3.563535205085358E-011
   46.4906250000000        -3.284161824906582E-011
   46.7043750000000        -2.932505965522368E-011
   46.9181250000000        -2.534879699584812E-011
   47.1318750000000        -2.121127261465515E-011
   47.3456250000000        -1.720714434825150E-011
   47.5593750000000        -1.360354760324405E-011
   47.7731250000000        -1.060545341002347E-011
   47.9868750000000        -8.350295412932856E-012
   48.2006250000000        -6.895926988393990E-012
   48.4143750000000        -6.234162842320792E-012
   48.6281250000000        -6.295380435887329E-012
   48.8418750000000        -6.969814132255043E-012
   49.0556250000000        -8.134618385930566E-012
   49.2693750000000        -9.671727471434328E-012
   49.4831250000000        -1.147912890265010E-011
   49.6968750000000        -1.347834765398987E-011
   49.9106250000000        -1.562561636640447E-011
   50.1243750000000        -1.789490948428509E-011
   50.3381250000000        -2.027473033007070E-011
   50.5518750000000        -2.274521114752732E-011
   50.7656250000000        -2.528294665664548E-011
   50.9793750000000        -2.783441381933776E-011
   51.1931250000000        -3.033468110265190E-011
   51.4068750000000        -3.268631951801650E-011
   51.6206250000000        -3.478625975585174E-011
   51.8343750000000        -3.653097580015843E-011
   52.0481250000000        -3.782720097294885E-011
   52.2618750000000        -3.861300900993030E-011
   52.4756250000000        -3.885906846226479E-011
   52.6893750000000        -3.857743923320652E-011
   52.9031250000000        -3.782286978032138E-011
   53.1168750000000        -3.668358023710977E-011
   53.3306250000000        -3.527357022588450E-011
   53.5443750000000        -3.371478783727064E-011
   53.7581250000000        -3.213275273261872E-011
   53.9718750000000        -3.063489609481936E-011
   54.1856250000000        -2.930445705125946E-011
   54.3993750000000        -2.819939669115802E-011
   54.6131250000000        -2.733956236621200E-011
   54.8268750000000        -2.672130823039087E-011
   55.0406250000000        -2.631115057250693E-011
   55.2543750000000        -2.606137074122842E-011
   55.4681250000000        -2.590655508215963E-011
   55.6818750000000        -2.578304133084961E-011
   55.8956250000000        -2.562529741967829E-011
   56.1093750000000        -2.538236154766739E-011
   56.3231250000000        -2.502082307435069E-011
   56.5368750000000        -2.453683494477604E-011
   56.7506250000000        -2.396249351315313E-011
   56.9643750000000        -2.336773501108201E-011
   57.1781250000000        -2.287855175706475E-011
   57.3918750000000        -2.265677400700323E-011
   57.6056250000000        -2.291390386109967E-011
   57.8193750000000        -2.387626657899973E-011
   58.0331250000000        -2.576949294174698E-011
   58.2468750000000        -2.877638462753310E-011
   58.4606250000000        -3.301037477668223E-011
   58.6743750000000        -3.845795654406178E-011
   58.8881250000000        -4.494614142960532E-011
   59.1018750000000        -5.212178596085432E-011
   59.3156250000000        -5.944527128614460E-011
   59.5293750000000        -6.620634390551588E-011
   59.7431250000000        -7.156512592573254E-011
   59.9568750000000        -7.464472960459292E-011
   60.1706250000000        -7.461991765191819E-011
   60.3843750000000        -7.083790852875381E-011
   60.5981250000000        -6.293643680527460E-011
   60.8118750000000        -5.096167182251977E-011
   61.0256250000000        -3.543659952534028E-011
   61.2393750000000        -1.739646862332710E-011
   61.4531250000000         1.627297039861736E-012
   61.6668750000000         1.970385085637499E-011
   61.8806250000000         3.466277059283134E-011
   62.0943750000000         4.428780681034246E-011
   62.3081250000000         4.660039187174875E-011
   62.5218750000000         4.010761785051384E-011
   62.7356250000000         2.407171625669663E-011
   62.9493750000000        -1.279201398826060E-012
   63.1631250000000        -3.463035706823103E-011
   63.3768750000000        -7.353139243764369E-011
   63.5906250000000        -1.145090241999215E-010
   63.8043750000000        -1.532931744424620E-010
   64.0181250000000        -1.851751381384437E-010
   64.2318750000000        -2.054613142113052E-010
   64.4456250000000        -2.100097118807063E-010
   64.6593750000000        -1.957758507363420E-010
   64.8731250000000        -1.613167228919817E-010
   65.0868750000000        -1.071982802214291E-010
   65.3006250000000        -3.625152409149341E-011
   65.5143750000000         4.640009640563927E-011
   65.7281250000000         1.335305136571947E-010
   65.9418750000000         2.162710897785734E-010
   66.1556250000000         2.848087986395839E-010
   66.3693750000000         3.292766142302819E-010
   66.5831250000000         3.407907604538765E-010
   66.7968750000000         3.125294268362869E-010
   67.0106250000000         2.407474134210529E-010
   67.2243750000000         1.256386484455040E-010
   67.4381250000000        -2.809242908055085E-011
   67.6518750000000        -2.110280117304479E-010
   67.8656250000000        -4.092640355090431E-010
   68.0793750000000        -6.051368567744360E-010
   68.2931250000000        -7.783987812812958E-010
   68.5068750000000        -9.078103713427163E-010
   68.7206250000000        -9.730854885625511E-010
   68.9343750000000        -9.569738003528883E-010
   69.1481250000000        -8.474031041261624E-010
   69.3618750000000        -6.393999388123713E-010
   69.5756250000000        -3.366670298082770E-010
   69.7893750000000         4.743524279851217E-011
   70.0031250000000         4.896277690450619E-010
   70.2168750000000         9.573280354823326E-010
   70.4306250000000         1.410175874660461E-009
   70.6443750000000         1.802502377023434E-009
   70.8581250000000         2.086649014205982E-009
   71.0718750000000         2.216974420003328E-009
   71.2856250000000         2.154339235390029E-009
   71.4993750000000         1.870730056229602E-009
   71.7131250000000         1.353670523340725E-009
   71.9268750000000         6.100028364347269E-010
   72.1406250000000        -3.313971901223493E-010
   72.3543750000000        -1.418387524342430E-009
   72.5681250000000        -2.576164587430473E-009
   72.7818750000000        -3.709999229599948E-009
   72.9956250000000        -4.710262292456970E-009
   73.2093750000000        -5.459684375419070E-009
   73.4231250000000        -5.842666650831771E-009
   73.6368750000000        -5.756152790624973E-009
   73.8506250000000        -5.121403871964799E-009
   74.0643750000000        -3.895775104108953E-009
   74.2781250000000        -2.083368813292689E-009
   74.4918750000000         2.565859121626767E-010
   74.7056250000000         3.004914830340098E-009
   74.9193750000000         5.982318924629892E-009
   75.1331250000000         8.954825756464319E-009
   75.3468750000000         1.164538824460339E-008
   75.5606250000000         1.375174259016449E-008
   75.7743750000000         1.497001159944117E-008
   75.9881250000000         1.502289518680551E-008
   76.2018750000000         1.369060354530663E-008
   76.4156250000000         1.084208904935847E-008
   76.6293750000000         6.463615339026445E-009
   76.8431250000000         6.814310560123980E-010
   77.0568750000000        -6.224708619795577E-009
   77.2706250000000        -1.382015969833236E-008
   77.4843750000000        -2.152842459515149E-008
   77.6981250000000        -2.865994180933098E-008
   77.9118750000000        -3.445663127583609E-008
   78.1256250000000        -3.815069113370134E-008
   78.3393750000000        -3.903441874045589E-008
   78.5531250000000        -3.653638858318947E-008
   78.7668750000000        -3.029766929939724E-008
   78.9806250000000        -2.024098237204529E-008
   79.1943750000000        -6.624995334655174E-009
   79.4081250000000         9.923701646295113E-009
   79.6218750000000         2.840763302224257E-008
   79.8356250000000         4.748926970639108E-008
   80.0493750000000         6.555817092339978E-008
   80.2631250000000         8.083378291248010E-008
   80.4768750000000         9.149983495757984E-008
   80.6906250000000         9.586271175306622E-008
   80.9043750000000         9.252284633900520E-008
   81.1181250000000         8.054531833161577E-008
   81.3318750000000         5.961401684078834E-008
   81.5456250000000         3.015296463011850E-008
   81.7593750000000        -6.600848383749057E-009
   81.9731250000000        -4.858646792649482E-008
   82.1868750000000        -9.297951056007939E-008
   82.4006250000000        -1.363285585915032E-007
   82.6143750000000        -1.747657140102015E-007
   82.8281250000000        -2.042826001540917E-007
   83.0418750000000        -2.210562724316886E-007
   83.2556250000000        -2.218030652330213E-007
   83.4693750000000        -2.041331845787768E-007
   83.6831250000000        -1.668754509077498E-007
   83.8968750000000        -1.103404684869964E-007
   84.1106250000000        -3.649192450955114E-008
   84.3243750000000         5.099982852271779E-008
   84.5381250000000         1.468408783035911E-007
   84.7518750000000         2.443429678906245E-007
   84.9656250000000         3.357969672599807E-007
   85.1793750000000         4.129764568090887E-007
   85.3931250000000         4.677447380493664E-007
   85.6068750000000         4.927271045679791E-007
   85.8206250000000         4.820006021050356E-007
   86.0343750000000         4.317470065486583E-007
   86.2481250000000         3.408119334780036E-007
   86.4618750000000         2.111146956645162E-007
   86.6756250000000         4.785985651362635E-008
   86.8893750000000        -1.404877368889778E-007
   87.1031250000000        -3.424874728896450E-007
   87.3168750000000        -5.442719649791840E-007
   87.5306250000000        -7.303448997540089E-007
   87.7443750000000        -8.845911750645972E-007
   87.9581250000000        -9.914426420563241E-007
   88.1718750000000        -1.037125370368249E-006
   88.3856250000000        -1.010900970640803E-006
   88.5993750000000        -9.062069449429153E-007
   88.8131250000000        -7.215998294499044E-007
   89.0268750000000        -4.614110543611722E-007
   89.2406250000000        -1.360388736948035E-007
   89.4543750000000         2.381799605035370E-007
   89.6681250000000         6.395489058685448E-007
   89.8818750000000         1.042040261385348E-006
   90.0956250000000         1.416740215382373E-006
   90.3093750000000         1.733643509967977E-006
   90.5231250000000         1.963699868281461E-006
   90.7368750000000         2.080987819934966E-006
   90.9506250000000         2.064871962437417E-006
   91.1643750000000         1.901988708944837E-006
   91.3781250000000         1.587904862673104E-006
   91.5918750000000         1.128303454092706E-006
   91.8056250000000         5.395724388109534E-007
   92.0193750000000        -1.512968087922635E-007
   92.2331250000000        -9.075539675550059E-007
   92.4468750000000        -1.684283081593343E-006
   92.6606250000000        -2.430699649755081E-006
   92.8743750000000        -3.093054832375990E-006
   93.0881250000000        -3.618001065380170E-006
   93.3018750000000        -3.956230541312600E-006
   93.5156250000000        -4.066164605448812E-006
   93.7293750000000        -3.917451032928138E-006
   93.9431250000000        -3.494019645771738E-006
   94.1568750000000        -2.796456282508656E-006
   94.3706250000000        -1.843481271698482E-006
   94.5843750000000        -6.723606455822243E-007
   94.7981250000000         6.618650906848138E-007
   95.0118750000000         2.088381459249219E-006
   95.2256250000000         3.523800141916379E-006
   95.4393750000000         4.876448713687650E-006
   95.6531250000000         6.051560613164691E-006
   95.8668750000000         6.957103021833106E-006
   96.0806250000000         7.509918562328636E-006
   96.2943750000000         7.641811433673515E-006
   96.5081250000000         7.305183318943206E-006
   96.7218750000000         6.477822779069064E-006
   96.9356250000000         5.166475404038338E-006
   97.1493750000000         3.408871119689830E-006
   97.3631250000000         1.273958671707502E-006
   97.5768750000000        -1.139807683582509E-006
   97.7906250000000        -3.708172240673412E-006
   98.0043750000000        -6.286692583126040E-006
   98.2181250000000        -8.718057930187567E-006
   98.4318750000000        -1.084078097233754E-005
   98.6456250000000        -1.249882209091894E-005
   98.8593750000000        -1.355161402059804E-005
   99.0731250000000        -1.388389159767965E-005
   99.2868750000000        -1.341470113160714E-005
   99.5006250000000        -1.210497163554853E-005
   99.7143750000000        -9.963077487741978E-006
   99.9281250000000        -7.047908842046702E-006
   100.141875000000        -3.469089297718517E-006
   100.355625000000         6.158658197684886E-007
   100.569375000000         5.007480453617519E-006
   100.783125000000         9.473178414089245E-006
   100.996875000000         1.375872310050115E-005
   101.210625000000         1.760170571449783E-005
   101.424375000000         2.074639445053427E-005
   101.638125000000         2.295913448781647E-005
   101.851875000000         2.404341012453134E-005
   102.065625000000         2.385365301592813E-005
   102.279375000000         2.230690875498889E-005
   102.493125000000         1.939155824634027E-005
   102.706875000000         1.517242776690672E-005
   102.920625000000         9.791805661137451E-006
   103.134375000000         3.466104216658840E-006
   103.348125000000        -3.521849975645289E-006
   103.561875000000        -1.083465966834597E-005
   103.775625000000        -1.809584884232173E-005
   103.989375000000        -2.490829029173401E-005
   104.203125000000        -3.087466526963038E-005
   104.416875000000        -3.561890856976858E-005
   104.630625000000        -3.880750632630512E-005
   104.844375000000        -4.016949078372321E-005
   105.058125000000        -3.951401749290015E-005
   105.271875000000        -3.674451370633698E-005
   105.485625000000        -3.186854605052947E-005
   105.699375000000        -2.500276109979311E-005
   105.913125000000        -1.637249272490284E-005
   106.126875000000        -6.305891004264392E-006
   106.340625000000         4.777304891248193E-006
   106.554375000000         1.638196706547258E-005
   106.768125000000         2.795812933229566E-005
   106.981875000000         3.892505470697315E-005
   107.195625000000         4.869781596439808E-005
   107.409375000000         5.671525858823117E-005
   107.623125000000         6.246813622191233E-005
   107.836875000000         6.552617708413655E-005
   108.050625000000         6.556285474503432E-005
   108.264375000000         6.237669533025212E-005
   108.478125000000         5.590805191729289E-005
   108.691875000000         4.625041254159099E-005
   108.905625000000         3.365547693545108E-005
   109.119375000000         1.853143629027240E-005
   109.333125000000         1.434117216549994E-006
   109.546875000000        -1.694909651443667E-005
   109.760625000000        -3.582237598408216E-005
   109.974375000000        -5.431111083925179E-005
   110.188125000000        -7.149733592231378E-005
   110.401875000000        -8.645982041149009E-005
   110.615625000000        -9.831741347314681E-005
   110.829375000000        -1.062739549967166E-004
   111.043125000000        -1.096628119554755E-004
   111.256875000000        -1.079889093737851E-004
   111.470625000000        -1.009660108058497E-004
   111.684375000000        -8.854698640238331E-005
   111.898125000000        -7.094490534719498E-005
   112.111875000000        -4.864301734312581E-005
   112.325625000000        -2.239205204099993E-005
   112.539375000000         6.806234799051991E-006
   112.753125000000         3.772971506163388E-005
   112.966875000000         6.898046042600287E-005
   113.180625000000         9.904215165881890E-005
   113.394375000000         1.263484141452251E-004
   113.608125000000         1.493593589236725E-004
   113.821875000000         1.666428733397763E-004
   114.035625000000         1.769566016547748E-004
   114.249375000000         1.793261377471907E-004
   114.463125000000         1.731147670046723E-004
   114.676875000000         1.580801789645039E-004
   114.890625000000         1.344139475966318E-004
   115.104375000000         1.027602456539292E-004
   115.318125000000         6.421120609369532E-005
   115.531875000000         2.027752955526487E-005
   115.745625000000        -2.716569571479086E-005
   115.959375000000        -7.595652119778566E-005
   116.173125000000        -1.237440811170561E-004
   116.386875000000        -1.681026069803716E-004
   116.600625000000        -2.066559345576111E-004
   116.814375000000        -2.372059594960234E-004
   117.028125000000        -2.578578843205220E-004
   117.241875000000        -2.671348989351086E-004
   117.455625000000        -2.640751863267210E-004
   117.669375000000        -2.483048536458020E-004
   117.883125000000        -2.200815337077390E-004
   118.096875000000        -1.803049305880016E-004
   118.310625000000        -1.304924128055109E-004
   118.524375000000        -7.271978296086455E-005
   118.738125000000        -9.529448808357401E-006
   118.951875000000         5.618974615007710E-005
   119.165625000000         1.213449400796745E-004
   119.379375000000         1.827963163689962E-004
   119.593125000000         2.375201361935150E-004
   119.806875000000         2.827685047640546E-004
   120.020625000000         3.162166450191436E-004
   120.234375000000         3.360890419175991E-004
   120.448125000000         3.412569642172745E-004
   120.661875000000         3.313015043840525E-004
   120.875625000000         3.065383016822148E-004
   121.089375000000         2.680024014534865E-004
   121.303125000000         2.173941071416725E-004
   121.516875000000         1.569890432426082E-004
   121.730625000000         8.951781051132902E-005
   121.944375000000         1.802243475135495E-005
   122.158125000000        -5.430183481129839E-005
   122.371875000000        -1.242700228224148E-004
   122.585625000000        -1.888666758996155E-004
   122.799375000000        -2.453917454642809E-004
   123.013125000000        -2.915850043495963E-004
   123.226875000000        -3.257224235839135E-004
   123.440625000000        -3.466798659070659E-004
   123.654375000000        -3.539616477739866E-004
   123.868125000000        -3.476938263337424E-004