  -1.60312500000000         6.736300136628073E-018
  -1.38937500000000         6.731712381944774E-018
  -1.17562500000000         6.805859167697241E-018
 -0.961875000000000         7.759067902723225E-018
 -0.748125000000000         1.418653254443023E-017
 -0.534375000000000         4.635478852977155E-017
 -0.320625000000000         1.785880482802958E-016
 -0.106875000000000         6.446189465759458E-016
  0.106875000000000         2.084645759166676E-015
  0.320625000000000         6.048186677057309E-015
  0.534375000000000         1.588761013890320E-014
  0.748125000000000         3.815691596774351E-014
  0.961875000000000         8.457361638982752E-014
   1.17562500000000         1.744880797353070E-013
   1.38937500000000         3.376971709168084E-013
   1.60312500000000         6.173441397221115E-013
   1.81687500000000         1.072572695735042E-012
   2.03062500000000         1.780589997413902E-012
   2.24437500000000         2.837780285331945E-012
   2.45812500000000         4.359603946096860E-012
   2.67187500000000         6.479094650167153E-012
   2.88562500000000         9.343880646963458E-012
   3.09937500000000         1.311193411740943E-011
   3.31312500000000         1.794622397581505E-011
   3.52687500000000         2.400875805068578E-011
   3.74062500000000         3.145446915830312E-011
   3.95437500000000         4.042555586150579E-011
   4.16812500000000         5.104681557257421E-011
   4.38187500000000         6.342234569403633E-011
   4.59562500000000         7.763380382209691E-011
   4.80937500000000         9.374049885886125E-011
   5.02312500000000         1.117809406374071E-010
   5.23687500000000         1.317756032563034E-010
   5.45062500000000         1.537305859798099E-010
   5.66437500000000         1.776414734677286E-010
   5.87812500000000         2.034970814206109E-010
   6.09187500000000         2.312826132096340E-010
   6.30562500000000         2.609820872851335E-010
   6.51937500000000         2.925799934177078E-010
   6.73312500000000         3.260623671205046E-010
   6.94687500000000         3.614174761098617E-010
   7.16062500000000         3.986364973070295E-010
   7.37437500000000         4.377144116574155E-010
   7.58812500000000         4.786513685440228E-010
   7.80187500000000         5.214544813426533E-010
   8.01562500000000         5.661398996008437E-010
   8.22937500000000         6.127347687075619E-010
   8.44312500000000         6.612786132930209E-010
   8.65687500000000         7.118237509662479E-010
   8.87062500000000         7.644342052725700E-010
   9.08437500000000         8.191828799614001E-010
   9.29812500000000         8.761470260093910E-010
   9.51187500000000         9.354022232275300E-010
   9.72562500000000         9.970154922002943E-010
   9.93937500000000         1.061038153385261E-009
   10.1531250000000         1.127499395512765E-009
   10.3668750000000         1.196401289342089E-009
   10.5806250000000         1.267715963660578E-009
   10.7943750000000         1.341385417239372E-009
   11.0081250000000         1.417324034019144E-009
   11.2218750000000         1.495423598911835E-009
   11.4356250000000         1.575560276513984E-009
   11.6493750000000         1.657602892903133E-009
   11.8631250000000         1.741421557806662E-009
   12.0768750000000         1.826895824643871E-009
   12.2906250000000         1.913921717272625E-009
   12.5043750000000         2.002417090340528E-009
   12.7181250000000         2.092325140543987E-009
   12.9318750000000         2.183615920596458E-009
   13.1456250000000         2.276286309912833E-009
   13.3593750000000         2.370358569846213E-009
   13.5731250000000         2.465878063117031E-009
   13.7868750000000         2.562910366649566E-009
   14.0006250000000         2.661538067371501E-009
   14.2143750000000         2.761857397708433E-009
   14.4281250000000         2.863974582240478E-009
   14.6418750000000         2.968002026683409E-009
   14.8556250000000         3.074054138811219E-009
   15.0693750000000         3.182242837554426E-009
   15.2831250000000         3.292672903281263E-009
   15.4968750000000         3.405437349878364E-009
   15.7106250000000         3.520613363273715E-009
   15.9243750000000         3.638259179606644E-009
   16.1381250000000         3.758412607235462E-009
   16.3518750000000         3.881091380368520E-009
   16.5656250000000         4.006295652306077E-009
   16.7793750000000         4.134012649254187E-009
   16.9931250000000         4.264223113028526E-009
   17.2068750000000         4.396908813422707E-009
   17.4206250000000         4.532060434172530E-009
   17.6343750000000         4.669684804751509E-009
   17.8481250000000         4.809810471691318E-009
   18.0618750000000         4.952491064887077E-009
   18.2756250000000         5.097805780881339E-009
   18.4893750000000         5.245856999055684E-009
   18.7031250000000         5.396765236195356E-009
   18.9168750000000         5.550662083532933E-009
   19.1306250000000         5.707682024558382E-009
   19.3443750000000         5.867954201861430E-009
   19.5581250000000         6.031595102485865E-009
   19.7718750000000         6.198703134900559E-009
   19.9856250000000         6.369355711576549E-009
   20.1993750000000         6.543609138099721E-009
   20.4131250000000         6.721501104073461E-009
   20.6268750000000         6.903055570350485E-009
   20.8406250000000         7.088289184969887E-009
   21.0543750000000         7.277218465994591E-009
   21.2681250000000         7.469866850926050E-009
   21.4818750000000         7.666270719791257E-009
   21.6956250000000         7.866483958265472E-009
   21.9093750000000         8.070580391351216E-009
   22.1231250000000         8.278654254729814E-009
   22.3368750000000         8.490818649800672E-009
   22.5506250000000         8.707202407662119E-009
   22.7643750000000         8.927945874110569E-009
   22.9781250000000         9.153196116376436E-009
   23.1918750000000         9.383102185282268E-009
   23.4056250000000         9.617810777720509E-009
   23.6193750000000         9.857462698415167E-009
   23.8331250000000         1.010219024756297E-008
   24.0468750000000         1.035211565228128E-008
   24.2606250000000         1.060735020994162E-008
   24.4743750000000         1.086799418366750E-008
   24.6881250000000         1.113413699283451E-008
   24.9018750000000         1.140585761209677E-008
   25.1156250000000         1.168322488514953E-008
   25.3293750000000         1.196629759569512E-008
   25.5431250000000         1.225512427820140E-008
   25.7568750000000         1.254974299062768E-008
   25.9706250000000         1.285018094888535E-008
   26.1843750000000         1.315645442966268E-008
   26.3981250000000         1.346856903003684E-008
   26.6118750000000         1.378652064318615E-008
   26.8256250000000         1.411029723602122E-008
   27.0393750000000         1.443988150228095E-008
   27.2531250000000         1.477525441985189E-008
   27.4668750000000         1.511639947685749E-008
   27.6806250000000         1.546330721108464E-008
   27.8943750000000         1.581597983232554E-008
   28.1081250000000         1.617443539133234E-008
   28.3218750000000         1.653871102873952E-008
   28.5356250000000         1.690886480365852E-008
   28.7493750000000         1.728497598064815E-008
   28.9631250000000         1.766714335275897E-008
   29.1768750000000         1.805548186514104E-008
   29.3906250000000         1.845011759142049E-008
   29.6043750000000         1.885118155457730E-008
   29.8181250000000         1.925880285254958E-008
   30.0318750000000         1.967310191343321E-008
   30.2456250000000         2.009418431287449E-008
   30.4593750000000         2.052213597382406E-008
   30.6731250000000         2.095702002175955E-008
   30.8868750000000         2.139887571612176E-008
   31.1006250000000         2.184771936727612E-008
   31.3143750000000         2.230354709392007E-008
   31.5281250000000         2.276633906392439E-008
   31.7418750000000         2.323606458878011E-008
   31.9556250000000         2.371268749131643E-008
   32.1693750000000         2.419617125521272E-008
   32.3831250000000         2.468648330944482E-008
   32.5968750000000         2.518359835645997E-008
   32.8106250000000         2.568750051568787E-008
   33.0243750000000         2.619818448105074E-008
   33.2381250000000         2.671565599091694E-008
   33.4518750000000         2.723993200542206E-008
   33.6656250000000         2.777104097676617E-008
   33.8793750000000         2.830902361159998E-008
   34.0931250000000         2.885393429264863E-008
   34.3068750000000         2.940584308543617E-008
   34.5206250000000         2.996483814464437E-008
   34.7343750000000         3.053102807525722E-008
   34.9481250000000         3.110454374405403E-008
   35.1618750000000         3.168553902532597E-008
   35.3756250000000         3.227419002276984E-008
   35.5893750000000         3.287069265389220E-008
   35.8031250000000         3.347525864674625E-008
   36.0168750000000         3.408811030551606E-008
   36.2306250000000         3.470947469316028E-008
   36.4443750000000         3.533957805659686E-008
   36.6581250000000         3.597864121727487E-008
   36.8718750000000         3.662687670567428E-008
   37.0856250000000         3.728448795593303E-008
   37.2993750000000         3.795167076691482E-008
   37.5131250000000         3.862861651868545E-008
   37.7268750000000         3.931551661760400E-008
   37.9406250000000         4.001256700565093E-008
   38.1543750000000         4.071997185348475E-008
   38.3681250000000         4.143794534241413E-008
   38.5818750000000         4.216671101783630E-008
   38.7956250000000         4.290649824024582E-008
   39.0093750000000         4.365753614724792E-008
   39.2231250000000         4.442004580698076E-008
   39.4368750000000         4.519423163355501E-008
   39.6506250000000         4.598027350937784E-008
   39.8643750000000         4.677832070163896E-008
   40.0781250000000         4.758848889575065E-008
   40.2918750000000         4.841086064794870E-008
   40.5056250000000         4.924548952679924E-008
   40.7193750000000         5.009240731062750E-008
   40.9331250000000         5.095163316940666E-008
   41.1468750000000         5.182318343206625E-008
   41.3606250000000         5.270708061349205E-008
   41.5743750000000         5.360336029465757E-008
   41.7881250000000         5.451207504261269E-008
   42.0018750000000         5.543329501768911E-008
   42.2156250000000         5.636710554092652E-008
   42.4293750000000         5.731360244987941E-008
   42.6431250000000         5.827288640803227E-008
   42.8568750000000         5.924505755287331E-008
   43.0706250000000         6.023021158105603E-008
   43.2843750000000         6.122843813717268E-008
   43.4981250000000         6.223982176199246E-008
   43.7118750000000         6.326444510671308E-008
   43.9256250000000         6.430239344384798E-008
   44.1393750000000         6.535375932424799E-008
   44.3531250000000         6.641864580631330E-008
   44.5668750000000         6.749716726932164E-008
   44.7806250000000         6.858944677495622E-008
   44.9943750000000         6.969560988320766E-008
   45.2081250000000         7.081577546086787E-008
   45.4218750000000         7.195004463071076E-008
   45.6356250000000         7.309848952392351E-008
   45.8493750000000         7.426114378358549E-008
   46.0631250000000         7.543799650178959E-008
   46.2768750000000         7.662899104349694E-008
   46.4906250000000         7.783402948585398E-008
   46.7043750000000         7.905298256650569E-008
   46.9181250000000         8.028570418524178E-008
   47.1318750000000         8.153204889947283E-008
   47.3456250000000         8.279189034501845E-008
   47.5593750000000         8.406513838253516E-008
   47.7731250000000         8.535175296100753E-008
   47.9868750000000         8.665175321638913E-008
   48.2006250000000         8.796522093824946E-008
   48.4143750000000         8.929229856305149E-008
   48.6281250000000         9.063318231873838E-008
   48.8418750000000         9.198811200485589E-008
   49.0556250000000         9.335735908196960E-008
   49.2693750000000         9.474121486905911E-008
   49.4831250000000         9.613998053283312E-008
   49.6968750000000         9.755395978366862E-008
   49.9106250000000         9.898345491037234E-008
   50.1243750000000         1.004287659191309E-007
   50.3381250000000         1.018901921094532E-007
   50.5518750000000         1.033680349633190E-007
   50.7656250000000         1.048626010754820E-007
   50.9793750000000         1.063742039703256E-007
   51.1931250000000         1.079031638952528E-007
   51.4068750000000         1.094498052532696E-007
   51.6206250000000         1.110144516839659E-007
   51.8343750000000         1.125974195176188E-007
   52.0481250000000         1.141990104843596E-007
   52.2618750000000         1.158195049812367E-007
   52.4756250000000         1.174591568727342E-007
   52.6893750000000         1.191181909474655E-007
   52.9031250000000         1.207968035091056E-007
   53.1168750000000         1.224951661706066E-007
   53.3306250000000         1.242134324161787E-007
   53.5443750000000         1.259517460580770E-007
   53.7581250000000         1.277102503957542E-007
   53.9718750000000         1.294890968601385E-007
   54.1856250000000         1.312884520107837E-007
   54.3993750000000         1.331085016459614E-007
   54.6131250000000         1.349494518003983E-007
   54.8268750000000         1.368115263110635E-007
   55.0406250000000         1.386949613584089E-007
   55.2543750000000         1.405999977211446E-007
   55.4681250000000         1.425268717606307E-007
   55.6818750000000         1.444758062753752E-007
   55.8956250000000         1.464470023491727E-007
   56.1093750000000         1.484406330584547E-007
   56.3231250000000         1.504568397448049E-007
   56.5368750000000         1.524957311612545E-007
   56.7506250000000         1.545573853741775E-007
   56.9643750000000         1.566418540878517E-007
   57.1781250000000         1.587491688338536E-007
   57.3918750000000         1.608793481882210E-007
   57.6056250000000         1.630324053083670E-007
   57.8193750000000         1.652083549502028E-007
   58.0331250000000         1.674072194116545E-007
   58.2468750000000         1.696290329586885E-007
   58.4606250000000         1.718738442338775E-007
   58.6743750000000         1.741417166004310E-007
   58.8881250000000         1.764327264454051E-007
   59.1018750000000         1.787469595251472E-007
   59.3156250000000         1.810845054890943E-007
   59.5293750000000         1.834454512023205E-007
   59.7431250000000         1.858298730334220E-007
   59.9568750000000         1.882378289918645E-007
   60.1706250000000         1.906693513082910E-007
   60.3843750000000         1.931244405131370E-007
   60.5981250000000         1.956030619286846E-007
   60.8118750000000         1.981051454889319E-007
   61.0256250000000         2.006305900275430E-007
   61.2393750000000         2.031792724638915E-007
   61.4531250000000         2.057510623091123E-007
   61.6668750000000         2.083458414995395E-007
   61.8806250000000         2.109635283811848E-007
   62.0943750000000         2.136041047690092E-007
   62.3081250000000         2.162676436128941E-007
   62.5218750000000         2.189543347941035E-007
   62.7356250000000         2.216645057652726E-007
   62.9493750000000         2.243986338239207E-007
   63.1631250000000         2.271573471201354E-007
   63.3768750000000         2.299414118668317E-007
   63.5906250000000         2.327517043171607E-007
   63.8043750000000         2.355891676156894E-007
   64.0181250000000         2.384547551220624E-007
   64.2318750000000         2.413493637483704E-007
   64.4456250000000         2.442737625057777E-007
   64.6593750000000         2.472285232822621E-007
   64.8731250000000         2.502139616884528E-007
   65.0868750000000         2.532300964179875E-007
   65.3006250000000         2.562766349376926E-007
   65.5143750000000         2.593529918444701E-007
   65.7281250000000         2.624583436352569E-007
   65.9418750000000         2.655917200845540E-007
   66.1556250000000         2.687521281173973E-007
   66.3693750000000         2.719386995102692E-007
   66.5831250000000         2.751508491982901E-007
   66.7968750000000         2.783884273542476E-007
   67.0106250000000         2.816518458090427E-007
   67.2243750000000         2.849421593605235E-007
   67.4381250000000         2.882610840068997E-007
   67.6518750000000         2.916109389016612E-007
   67.8656250000000         2.949945055997021E-007
   68.0793750000000         2.984148073764217E-007
   68.2931250000000         3.018748216144504E-007
   68.5068750000000         3.053771485983599E-007
   68.7206250000000         3.089236696876404E-007
   68.9343750000000         3.125152345812168E-007
   69.1481250000000         3.161514206061458E-007
   69.3618750000000         3.198304052440529E-007
   69.5756250000000         3.235489857705996E-007
   69.7893750000000         3.273027677514272E-007
   70.0031250000000         3.310865263448121E-007
   70.2168750000000         3.348947240435458E-007
   70.4306250000000         3.387221465506898E-007
   70.6443750000000         3.425645977646928E-007
   70.8581250000000         3.464195783518171E-007
   71.0718750000000         3.502868625685664E-007
   71.2856250000000         3.541688869723807E-007
   71.4993750000000         3.580708745460627E-007
   71.7131250000000         3.620006380437264E-007
   71.9268750000000         3.659680370676209E-007
   72.1406250000000         3.699841016503587E-007
   72.3543750000000         3.740598776354454E-007
   72.5681250000000         3.782050917663482E-007
   72.7818750000000         3.824267708570958E-007
   72.9956250000000         3.867279762088661E-007
   73.2093750000000         3.911068245039884E-007
   73.4231250000000         3.955559587901258E-007
   73.6368750000000         4.000626036082360E-007
   73.8506250000000         4.046092890176447E-007
   74.0643750000000         4.091752611160847E-007
   74.2781250000000         4.137385173267232E-007
   74.4918750000000         4.182783208313231E-007
   74.7056250000000         4.227779690284578E-007
   74.9193750000000         4.272275260450473E-007
   75.1331250000000         4.316261882998249E-007
   75.3468750000000         4.359839441126883E-007
   75.5606250000000         4.403222179277835E-007
   75.7743750000000         4.446732597912724E-007
   75.9881250000000         4.490781493886378E-007
   76.2018750000000         4.535834233416531E-007
   76.4156250000000         4.582364945925936E-007
   76.6293750000000         4.630801976219796E-007
   76.8431250000000         4.681469452336117E-007
   77.0568750000000         4.734531032759278E-007
   77.2706250000000         4.789942599537490E-007
   77.4843750000000         4.847420725543027E-007
   77.6981250000000         4.906433049539270E-007
   77.9118750000000         4.966215220129183E-007
   78.1256250000000         5.025816861881055E-007
   78.3393750000000         5.084176206710132E-007
   78.5531250000000         5.140219841751449E-007
   78.7668750000000         5.192980735913819E-007
   78.9806250000000         5.241724661189054E-007
   79.1943750000000         5.286072682204972E-007
   79.4081250000000         5.326105889140693E-007
   79.6218750000000         5.362438298309519E-007
   79.8356250000000         5.396245028579544E-007
   80.0493750000000         5.429235587536445E-007
   80.2631250000000         5.463566274615358E-007
   80.4768750000000         5.501691132547084E-007
   80.6906250000000         5.546157150385681E-007
   80.9043750000000         5.599356036335757E-007
   81.1181250000000         5.663251197847855E-007
   81.3318750000000         5.739103911857363E-007
   81.5456250000000         5.827226368479210E-007
   81.7593750000000         5.926790717223254E-007
   81.9731250000000         6.035721972656490E-007
   82.1868750000000         6.150698409615511E-007
   82.4006250000000         6.267275885635828E-007
   82.6143750000000         6.380142689764469E-007
   82.8281250000000         6.483499621102518E-007
   83.0418750000000         6.571546946397586E-007
   83.2556250000000         6.639046782047742E-007
   83.4693750000000         6.681917575959062E-007
   83.6831250000000         6.697808034334999E-007
   83.8968750000000         6.686592320080034E-007
   84.1106250000000         6.650727668765475E-007
   84.3243750000000         6.595420449447149E-007
   84.5381250000000         6.528557421838603E-007
   84.7518750000000         6.460375230834591E-007
   84.9656250000000         6.402862237267307E-007
   85.1793750000000         6.368911210377441E-007
   85.3931250000000         6.371267311715500E-007
   85.6068750000000         6.421340929912918E-007
   85.8206250000000         6.527976779386145E-007
   86.0343750000000         6.696286800253021E-007
   86.2481250000000         6.926662519379399E-007
   86.4618750000000         7.214080916882751E-007
   86.6756250000000         7.547805425531156E-007
   86.8893750000000         7.911560308777128E-007
   87.1031250000000         8.284223200310622E-007
   87.3168750000000         8.641038922758344E-007
   87.5306250000000         8.955310775075102E-007
   87.7443750000000         9.200477002651975E-007
   87.9581250000000         9.352434471807387E-007
   88.1718750000000         9.391933178043244E-007
   88.3856250000000         9.306838494523410E-007
   88.5993750000000         9.094046750966539E-007
   88.8131250000000         8.760846529412694E-007
   89.0268750000000         8.325544287815232E-007
   89.2406250000000         7.817218222527754E-007
   89.4543750000000         7.274526479310519E-007
   89.6681250000000         6.743571007832187E-007
   89.8818750000000         6.274900972115273E-007
   90.0956250000000         5.919822963496156E-007
   90.3093750000000         5.726261849929392E-007
   90.5231250000000         5.734478441566398E-007
   90.7368750000000         5.972991368899963E-007
   90.9506250000000         6.455065103427497E-007
   91.1643750000000         7.176110305055060E-007
   91.3781250000000         8.112295516822341E-007
   91.5918750000000         9.220592251425294E-007
   91.8056250000000         1.044037318654135E-006
   92.0193750000000         1.169656256169491E-006
   92.2331250000000         1.290420820133975E-006
   92.4468750000000         1.397421657918029E-006
   92.6606250000000         1.481987727898812E-006
   92.8743750000000         1.536371196190726E-006
   93.0881250000000         1.554412494621556E-006
   93.3018750000000         1.532131475256322E-006
   93.5156250000000         1.468193230594115E-006
   93.7293750000000         1.364204204205980E-006
   93.9431250000000         1.224805315047646E-006
   94.1568750000000         1.057543206486064E-006
   94.3706250000000         8.725173296429090E-007
   94.5843750000000         6.818180658411651E-007
   94.7981250000000         4.987880391708613E-007
   95.0118750000000         3.371537251409933E-007
   95.2256250000000         2.100861146928305E-007
   95.4393750000000         1.292564878484204E-007
   95.6531250000000         1.039555928293174E-007
   95.8668750000000         1.403414490615712E-007
   96.0806250000000         2.408727894614225E-007
   96.2943750000000         4.039724758262147E-007
   96.5081250000000         6.239490965138592E-007
   96.7218750000000         8.911867214144175E-007
   96.9356250000000         1.192593953546254E-006
   97.1493750000000         1.512285512028603E-006
   97.3631250000000         1.832454025759968E-006
   97.5768750000000         2.134377678110919E-006
   97.7906250000000         2.399501627990334E-006
   98.0043750000000         2.610528123598141E-006
   98.2181250000000         2.752451854621112E-006
   98.4318750000000         2.813482865955703E-006
   98.6456250000000         2.785808439361017E-006
   98.8593750000000         2.666156655069007E-006
   99.0731250000000         2.456136687473570E-006
   99.2868750000000         2.162343118203827E-006
   99.5006250000000         1.796222697712216E-006
   99.7143750000000         1.373711369603412E-006
   99.9281250000000         9.146566735890863E-007
   100.141875000000         4.420459249691314E-007
   100.355625000000        -1.893574881749968E-008
   100.569375000000        -4.419906689675596E-007
   100.783125000000        -8.009076408903659E-007
   100.996875000000        -1.070841842088458E-006
   101.210625000000        -1.229637883534257E-006
   101.424375000000        -1.259151948281133E-006
   101.638125000000        -1.146520973720175E-006
   101.851875000000        -8.853180355635430E-007
   102.065625000000        -4.765245592166277E-007
   102.279375000000         7.075670531123410E-008
   102.493125000000         7.389270281135917E-007
   102.706875000000         1.501931920551932E-006
   102.920625000000         2.325783054768404E-006
   103.134375000000         3.169610579556150E-006
   103.348125000000         3.987267574724076E-006
   103.561875000000         4.729473093749212E-006
   103.775625000000         5.346438173167078E-006
   103.989375000000         5.790872966726257E-006
   104.203125000000         6.021226392158276E-006
   104.416875000000         6.004966692488426E-006
   104.630625000000         5.721676835641494E-006
   104.844375000000         5.165717383648983E-006
   105.058125000000         4.348205497359447E-006
   105.271875000000         3.298075213474241E-006
   105.485625000000         2.062022660105952E-006
   105.699375000000         7.032002423291360E-007
   105.913125000000        -7.013962521696922E-007
   106.126875000000        -2.064808585640466E-006
   106.340625000000        -3.295122046777237E-006
   106.554375000000        -4.301348540736723E-006
   106.768125000000        -4.999841823404280E-006
   106.981875000000        -5.320819949932189E-006
   107.195625000000        -5.214515792169116E-006
   107.409375000000        -4.656455334878403E-006
   107.623125000000        -3.651380575649482E-006
   107.836875000000        -2.235391622971756E-006
   108.050625000000        -4.759801443032998E-007
   108.264375000000         1.530240675211650E-006
   108.478125000000         3.662143763452769E-006
   108.691875000000         5.780889727214204E-006
   108.905625000000         7.738596947647507E-006
   109.119375000000         9.388383442993557E-006
   109.333125000000         1.059513740906757E-005
   109.546875000000         1.124626571772204E-005
   109.760625000000         1.126161220598690E-005
   109.974375000000         1.060173852940697E-005
   110.188125000000         9.273823724640842E-006
   110.401875000000         7.334563723409761E-006
   110.615625000000         4.889633215941880E-006
   110.829375000000         2.089499030898364E-006
   111.043125000000        -8.783680509220892E-007
   111.256875000000        -3.800565262227571E-006
   111.470625000000        -6.451531647936066E-006
   111.684375000000        -8.609204623945385E-006
   111.898125000000        -1.007154938392477E-005
   112.111875000000        -1.067282333861651E-005
   112.325625000000        -1.029838547333821E-005
   112.539375000000        -8.896891392566915E-006
   112.753125000000        -6.488830639129435E-006
   112.966875000000        -3.170559240766033E-006
   113.180625000000         8.867530300978363E-007
   113.394375000000         5.443520263816961E-006
   113.608125000000         1.020338728332997E-005
   113.821875000000         1.482966391886052E-005
   114.035625000000         1.896573215847480E-005
   114.249375000000         2.225829697797647E-005
   114.463125000000         2.438209751074334E-005
   114.676875000000         2.506452067169819E-005
   114.890625000000         2.410847871702060E-005
   115.104375000000         2.141193407783709E-005
   115.318125000000         1.698258138959517E-005
   115.531875000000         1.094642365603163E-005
   115.745625000000         3.549296338467284E-006
   115.959375000000        -4.849216458708231E-006
   116.173125000000        -1.378958670277419E-005
   116.386875000000        -2.273351041804184E-005
   116.600625000000        -3.109160975701192E-005
   116.814375000000        -3.825639508760443E-005
   117.028125000000        -4.363882165399167E-005
   117.241875000000        -4.670646215870711E-005
   117.455625000000        -4.702110269629222E-005
   117.669375000000        -4.427347131187013E-005
   117.883125000000        -3.831283690597244E-005
   118.096875000000        -2.916937578832640E-005
   118.310625000000        -1.706749165196428E-005
   118.524375000000        -2.428682920671102E-006
   118.738125000000         1.413693666147930E-005
   118.951875000000         3.185076502236535E-005
   119.165625000000         4.979714041614929E-005
   119.379375000000         6.696505814555785E-005
   119.593125000000         8.229850884429772E-005
   119.806875000000         9.475317089600245E-005
   120.020625000000         1.033566775657475E-004
   120.234375000000         1.072692909004937E-004
   120.448125000000         1.058415795335624E-004
   120.661875000000         9.866563981187356E-005
   120.875625000000         8.561653436567888E-005
   121.089375000000         6.688095460240184E-005
   121.303125000000         4.297063777645294E-005
   121.516875000000         1.471876777774839E-005
   121.730625000000        -1.674156739340812E-005
   121.944375000000        -5.001683893890815E-005
   122.158125000000        -8.350943211042023E-005
   122.371875000000        -1.154888546048047E-004
   122.585625000000        -1.441748085423394E-004
   122.799375000000        -1.678282997579420E-004
   123.013125000000        -1.848462928603335E-004
   123.226875000000        -1.938549743581675E-004
   123.440625000000        -1.937964964725921E-004
   123.654375000000        -1.840041647495366E-004
   123.868125000000        -1.642614111138741E-004