  -1.60312500000000         9.404525428058060E-025
  -1.38937500000000         9.395316904790743E-025
  -1.17562500000000         9.430461235939880E-025
 -0.961875000000000         1.018000834815031E-024
 -0.748125000000000         1.584375124987864E-024
 -0.534375000000000         4.589233180384860E-024
 -0.320625000000000         1.745186405053962E-023
 -0.106875000000000         6.427612697329486E-023
  0.106875000000000         2.129591995640193E-022
  0.320625000000000         6.318044736316406E-022
  0.534375000000000         1.692173709693645E-021
  0.748125000000000         4.132085571605089E-021
  0.961875000000000         9.288824274859729E-021
   1.17562500000000         1.939583841864088E-020
   1.38937500000000         3.792640304018350E-020
   1.60312500000000         6.995506474517525E-020
   1.81687500000000         1.224985852737354E-019
   2.03062500000000         2.047968301861428E-019
   2.24437500000000         3.284895955038300E-019
   2.45812500000000         5.076561822962322E-019
   2.67187500000000         7.586914715637991E-019
   2.88562500000000         1.100004304701460E-018
   3.09937500000000         1.551559435479989E-018
   3.31312500000000         2.134271812072267E-018
   3.52687500000000         2.869314515659385E-018
   3.74062500000000         3.777385132470763E-018
   3.95437500000000         4.878005482039853E-018
   4.16812500000000         6.188922228186410E-018
   4.38187500000000         7.725658345089005E-018
   4.59562500000000         9.501252214843523E-018
   4.80937500000000         1.152621649945830E-017
   5.02312500000000         1.380869478992396E-017
   5.23687500000000         1.635478680214178E-017
   5.45062500000000         1.916900716312818E-017
   5.66437500000000         2.225479465197823E-017
   5.87812500000000         2.561501617711046E-017
   6.09187500000000         2.925240429166764E-017
   6.30562500000000         3.316988127399301E-017
   6.51937500000000         3.737074294082654E-017
   6.73312500000000         4.185871475837363E-017
   6.94687500000000         4.663788179817944E-017
   7.16062500000000         5.171254477688107E-017
   7.37437500000000         5.708703510368165E-017
   7.58812500000000         6.276555365347672E-017
   7.80187500000000         6.875205731616973E-017
   8.01562500000000         7.505021802317041E-017
   8.22937500000000         8.166345834070308E-017
   8.44312500000000         8.859503587370471E-017
   8.65687500000000         9.584815837641810E-017
   8.87062500000000         1.034260599737378E-016
   9.08437500000000         1.113320052009223E-016
   9.29812500000000         1.195691760262974E-016
   9.51187500000000         1.281404188681506E-016
   9.72562500000000         1.370478584122407E-016
   9.93937500000000         1.462923996013967E-016
   10.1531250000000         1.558731784602100E-016
   10.3668750000000         1.657870277922258E-016
   10.5806250000000         1.760280346195883E-016
   10.7943750000000         1.865872762004426E-016
   11.0081250000000         1.974527949450415E-016
   11.2218750000000         2.086098386780098E-016
   11.4356250000000         2.200413850215105E-016
   11.6493750000000         2.317289207723571E-016
   11.8631250000000         2.436534067325339E-016
   12.0768750000000         2.557963435902741E-016
   12.2906250000000         2.681408436901985E-016
   12.5043750000000         2.806726017373593E-016
   12.7181250000000         2.933806731411954E-016
   12.9318750000000         3.062579803112891E-016
   13.1456250000000         3.193015225579756E-016
   13.3593750000000         3.325122628531476E-016
   13.5731250000000         3.458947379642781E-016
   13.7868750000000         3.594564293113744E-016
   14.0006250000000         3.732069780428819E-016
   14.2143750000000         3.871573260659781E-016
   14.4281250000000         4.013188556581073E-016
   14.6418750000000         4.157026196136748E-016
   14.8556250000000         4.303187014194949E-016
   15.0693750000000         4.451757497160920E-016
   15.2831250000000         4.602807028224865E-016
   15.4968750000000         4.756386956766836E-016
   15.7106250000000         4.912531454099325E-016
   15.9243750000000         5.071259742771667E-016
   16.1381250000000         5.232579672374185E-016
   16.3518750000000         5.396492085223311E-016
   16.5656250000000         5.562995746250995E-016
   16.7793750000000         5.732092701279682E-016
   16.9931250000000         5.903793643536604E-016
   17.2068750000000         6.078122987986287E-016
   17.4206250000000         6.255123435685225E-016
   17.6343750000000         6.434859660315411E-016
   17.8481250000000         6.617420677394849E-016
   18.0618750000000         6.802920843913765E-016
   18.2756250000000         6.991499113583367E-016
   18.4893750000000         7.183316561268419E-016
   18.7031250000000         7.378552277696957E-016
   18.9168750000000         7.577397793562462E-016
   19.1306250000000         7.780050579136634E-016
   19.3443750000000         7.986707190992930E-016
   19.5581250000000         8.197556541544362E-016
   19.7718750000000         8.412774121639866E-016
   19.9856250000000         8.632517623700560E-016
   20.1993750000000         8.856924421903279E-016
   20.4131250000000         9.086110928318525E-016
   20.6268750000000         9.320174051226730E-016
   20.8406250000000         9.559194293782229E-016
   21.0543750000000         9.803240127623836E-016
   21.2681250000000         1.005237315795087E-015
   21.4818750000000         1.030665335197935E-015
   21.6956250000000         1.056614401256269E-015
   21.9093750000000         1.083091574802722E-015
   22.1231250000000         1.110104948193455E-015
   22.3368750000000         1.137663809920368E-015
   22.5506250000000         1.165778684918743E-015
   22.7643750000000         1.194461270797911E-015
   22.9781250000000         1.223724278660154E-015
   23.1918750000000         1.253581223684625E-015
   23.4056250000000         1.284046174335594E-015
   23.6193750000000         1.315133493335873E-015
   23.8331250000000         1.346857587159984E-015
   24.0468750000000         1.379232681410202E-015
   24.2606250000000         1.412272606906577E-015
   24.4743750000000         1.445990622802349E-015
   24.6881250000000         1.480399257782657E-015
   24.9018750000000         1.515510174941159E-015
   25.1156250000000         1.551334047590305E-015
   25.3293750000000         1.587880441010073E-015
   25.5431250000000         1.625157684822692E-015
   25.7568750000000         1.663172760109917E-015
   25.9706250000000         1.701931167510270E-015
   26.1843750000000         1.741436795115146E-015
   26.3981250000000         1.781691787070104E-015
   26.6118750000000         1.822696441634962E-015
   26.8256250000000         1.864449151193774E-015
   27.0393750000000         1.906946411827522E-015
   27.2531250000000         1.950182941058910E-015
   27.4668750000000         1.994151923885045E-015
   27.6806250000000         2.038845389456913E-015
   27.8943750000000         2.084254743233044E-015
   28.1081250000000         2.130371426991883E-015
   28.3218750000000         2.177187660438197E-015
   28.5356250000000         2.224697198734991E-015
   28.7493750000000         2.272896046308583E-015
   28.9631250000000         2.321783025726253E-015
   29.1768750000000         2.371360143834755E-015
   29.3906250000000         2.421632682218809E-015
   29.6043750000000         2.472608992029676E-015
   29.8181250000000         2.524299986221607E-015
   30.0318750000000         2.576718397512890E-015
   30.2456250000000         2.629877852483186E-015
   30.4593750000000         2.683791890390987E-015
   30.6731250000000         2.738473021231759E-015
   30.8868750000000         2.793931947321448E-015
   31.1006250000000         2.850177022463252E-015
   31.3143750000000         2.907214007822642E-015
   31.5281250000000         2.965046135395327E-015
   31.7418750000000         3.023674443944392E-015
   31.9556250000000         3.083098314058174E-015
   32.1693750000000         3.143316126447783E-015
   32.3831250000000         3.204325923080154E-015
   32.5968750000000         3.266126009975459E-015
   32.8106250000000         3.328715416642549E-015
   33.0243750000000         3.392094202717885E-015
   33.2381250000000         3.456263613420078E-015
   33.4518750000000         3.521226134319473E-015
   33.6656250000000         3.586985499131886E-015
   33.8793750000000         3.653546731478517E-015
   34.0931250000000         3.720916273852884E-015
   34.3068750000000         3.789102230867328E-015
   34.5206250000000         3.858114727372233E-015
   34.7343750000000         3.927966340793378E-015
   34.9481250000000         3.998672536437290E-015
   35.1618750000000         4.070252020375325E-015
   35.3756250000000         4.142726915159619E-015
   35.5893750000000         4.216122704679082E-015
   35.8031250000000         4.290467902283134E-015
   36.0168750000000         4.365793457722570E-015
   36.2306250000000         4.442131960093276E-015
   36.4443750000000         4.519516728192367E-015
   36.6581250000000         4.597980903517416E-015
   36.8718750000000         4.677556665529222E-015
   37.0856250000000         4.758274663856598E-015
   37.2993750000000         4.840163739694994E-015
   37.5131250000000         4.923250937536489E-015
   37.7268750000000         5.007561780475387E-015
   37.9406250000000         5.093120710819599E-015
   38.1543750000000         5.179951597887892E-015
   38.3681250000000         5.268078175806298E-015
   38.5818750000000         5.357524320016090E-015
   38.7956250000000         5.448314062575536E-015
   39.0093750000000         5.540471341886766E-015
   39.2231250000000         5.634019499820059E-015
   39.4368750000000         5.728980603943563E-015
   39.6506250000000         5.825374708058853E-015
   39.8643750000000         5.923219163716146E-015
   40.0781250000000         6.022528125960763E-015
   40.2918750000000         6.123312305725863E-015
   40.5056250000000         6.225579044382278E-015
   40.7193750000000         6.329332692908522E-015
   40.9331250000000         6.434575239316560E-015
   41.1468750000000         6.541307091514652E-015
   41.3606250000000         6.649527917802589E-015
   41.5743750000000         6.759237423144940E-015
   41.7881250000000         6.870435982968356E-015
   42.0018750000000         6.983125073814985E-015
   42.2156250000000         7.097307495607010E-015
   42.4293750000000         7.212987411621657E-015
   42.6431250000000         7.330170260858590E-015
   42.8568750000000         7.448862624471144E-015
   43.0706250000000         7.569072100585027E-015
   43.2843750000000         7.690807240920569E-015
   43.4981250000000         7.814077560037477E-015
   43.7118750000000         7.938893598991336E-015
   43.9256250000000         8.065266979862406E-015
   44.1393750000000         8.193210390027386E-015
   44.3531250000000         8.322737397937846E-015
   44.5668750000000         8.453862073027284E-015
   44.7806250000000         8.586598356988520E-015
   44.9943750000000         8.720959216292659E-015
   45.2081250000000         8.856955653126734E-015
   45.4218750000000         8.994595680425877E-015
   45.6356250000000         9.133883400767755E-015
   45.8493750000000         9.274818340856270E-015
   46.0631250000000         9.417395160827655E-015
   46.2768750000000         9.561603835700385E-015
   46.4906250000000         9.707430348852295E-015
   46.7043750000000         9.854857862332643E-015
   46.9181250000000         1.000386827217195E-014
   47.1318750000000         1.015444401194676E-014
   47.3456250000000         1.030656992731025E-014
   47.5593750000000         1.046023504059792E-014
   47.7731250000000         1.061543403588048E-014
   47.9868750000000         1.077216833744645E-014
   48.2006250000000         1.093044669452686E-014
   48.4143750000000         1.109028527040095E-014
   48.6281250000000         1.125170725784130E-014
   48.8418750000000         1.141474211841366E-014
   49.0556250000000         1.157942455339425E-014
   49.2693750000000         1.174579333424081E-014
   49.4831250000000         1.191389013072395E-014
   49.6968750000000         1.208375841485832E-014
   49.9106250000000         1.225544252252709E-014
   50.1243750000000         1.242898689950706E-014
   50.3381250000000         1.260443553134869E-014
   50.5518750000000         1.278183153194784E-014
   50.7656250000000         1.296121684172047E-014
   50.9793750000000         1.314263199583862E-014
   51.1931250000000         1.332611592009920E-014
   51.4068750000000         1.351170573619016E-014
   51.6206250000000         1.369943656262465E-014
   51.8343750000000         1.388934133396576E-014
   52.0481250000000         1.408145065429771E-014
   52.2618750000000         1.427579273225627E-014
   52.4756250000000         1.447239340753014E-014
   52.6893750000000         1.467127631460907E-014
   52.9031250000000         1.487246318177708E-014
   53.1168750000000         1.507597426174672E-014
   53.3306250000000         1.528182886949608E-014
   53.5443750000000         1.549004598768563E-014
   53.7581250000000         1.570064488215707E-014
   53.9718750000000         1.591364568733435E-014
   54.1856250000000         1.612906990590697E-014
   54.3993750000000         1.634694074504906E-014
   54.6131250000000         1.656728328103086E-014
   54.8268750000000         1.679012440221054E-014
   55.0406250000000         1.701549251695262E-014
   55.2543750000000         1.724341703368623E-014
   55.4681250000000         1.747392762731389E-014
   55.6818750000000         1.770705333134361E-014
   55.8956250000000         1.794282151754290E-014
   56.1093750000000         1.818125682858945E-014
   56.3231250000000         1.842238016278840E-014
   56.5368750000000         1.866620781048365E-014
   56.7506250000000         1.891275083164258E-014
   56.9643750000000         1.916201477530175E-014
   57.1781250000000         1.941399981386823E-014
   57.3918750000000         1.966870132073561E-014
   57.6056250000000         1.992611089731586E-014
   57.8193750000000         2.018621779183943E-014
   58.0331250000000         2.044901060566636E-014
   58.2468750000000         2.071447914889064E-014
   58.4606250000000         2.098261623658717E-014
   58.6743750000000         2.125341922808469E-014
   58.8881250000000         2.152689110828896E-014
   59.1018750000000         2.180304093235778E-014
   59.3156250000000         2.208188349749398E-014
   59.5293750000000         2.236343822182092E-014
   59.7431250000000         2.264772722703994E-014
   59.9568750000000         2.293477280587558E-014
   60.1706250000000         2.322459448912839E-014
   60.3843750000000         2.351720604531288E-014
   60.5981250000000         2.381261279270348E-014
   60.8118750000000         2.411080960868307E-014
   61.0256250000000         2.441178006271970E-014
   61.2393750000000         2.471549694568809E-014
   61.4531250000000         2.502192443372727E-014
   61.6668750000000         2.533102195376414E-014
   61.8806250000000         2.564274957847294E-014
   62.0943750000000         2.595707466163228E-014
   62.3081250000000         2.627397913155788E-014
   62.5218750000000         2.659346674437296E-014
   62.7356250000000         2.691556942192473E-014
   62.9493750000000         2.724035175387855E-014
   63.1631250000000         2.756791279316709E-014
   63.3768750000000         2.789838439325087E-014
   63.5906250000000         2.823192560792562E-014
   63.8043750000000         2.856871306538649E-014
   64.0181250000000         2.890892767636780E-014
   64.2318750000000         2.925273855309662E-014
   64.4456250000000         2.960028551336565E-014
   64.6593750000000         2.995166200189523E-014
   64.8731250000000         3.030690053375554E-014
   65.0868750000000         3.066596287558798E-014
   65.3006250000000         3.102873699207642E-014
   65.5143750000000         3.139504233861719E-014
   65.7281250000000         3.176464433337554E-014
   65.9418750000000         3.213727785540421E-014
   66.1556250000000         3.251267846942338E-014
   66.3693750000000         3.289061888485344E-014
   66.5831250000000         3.327094707986047E-014
   66.7968750000000         3.365362170942515E-014
   67.0106250000000         3.403873997989541E-014
   67.2243750000000         3.442655336015308E-014
   67.4381250000000         3.481746719376935E-014
   67.6518750000000         3.521202165057487E-014
   67.8656250000000         3.561085333768058E-014
   68.0793750000000         3.601463917358834E-014
   68.2931250000000         3.642402654644345E-014
   68.5068750000000         3.683955604931577E-014
   68.7206250000000         3.726158495429733E-014
   68.9343750000000         3.769022069014191E-014
   69.1481250000000         3.812527373491518E-014
   69.3618750000000         3.856623834573811E-014
   69.5756250000000         3.901230737768382E-014
   69.7893750000000         3.946242428499641E-014
   70.0031250000000         3.991537134778813E-014
   70.2168750000000         4.036988877945213E-014
   70.4306250000000         4.082481501997311E-014
   70.6443750000000         4.127923475135147E-014
   70.8581250000000         4.173261854574953E-014
   71.0718750000000         4.218493699557278E-014
   71.2856250000000         4.263673296777156E-014
   71.4993750000000         4.308913846051351E-014
   71.7131250000000         4.354382722759497E-014
   71.9268750000000         4.400290062125665E-014
   72.1406250000000         4.446871138020583E-014
   72.3543750000000         4.494363762614576E-014
   72.5681250000000         4.542982636144698E-014
   72.7818750000000         4.592893128309593E-014
   72.9956250000000         4.644187317843567E-014
   73.2093750000000         4.696865168793543E-014
   73.4231250000000         4.750823474882245E-014
   73.6368750000000         4.805854629512586E-014
   73.8506250000000         4.861656431400996E-014
   74.0643750000000         4.917853070481932E-014
   74.2781250000000         4.974026256807532E-014
   74.4918750000000         5.029754274858125E-014
   74.7056250000000         5.084655691278635E-014
   74.9193750000000         5.138433641506724E-014
   75.1331250000000         5.190916171712556E-014
   75.3468750000000         5.242088099638791E-014
   75.5606250000000         5.292110305114931E-014
   75.7743750000000         5.341323265843861E-014
   75.9881250000000         5.390232957515623E-014
   76.2018750000000         5.439478826488970E-014
   76.4156250000000         5.489785291844124E-014
   76.6293750000000         5.541899970951809E-014
   76.8431250000000         5.596523379975299E-014
   77.0568750000000         5.654236080645240E-014
   77.2706250000000         5.715429982292720E-014
   77.4843750000000         5.780250678101768E-014
   77.6981250000000         5.848557232158403E-014
   77.9118750000000         5.919904761084039E-014
   78.1256250000000         5.993553520125293E-014
   78.3393750000000         6.068506127885182E-014
   78.5531250000000         6.143572198437534E-014
   78.7668750000000         6.217457177898998E-014
   78.9806250000000         6.288869802784602E-014
   79.1943750000000         6.356640513738289E-014
   79.4081250000000         6.419841543137528E-014
   79.6218750000000         6.477898421329498E-014
   79.8356250000000         6.530682406821373E-014
   80.0493750000000         6.578573943727223E-014
   80.2631250000000         6.622488666787653E-014
   80.4768750000000         6.663859707448016E-014
   80.6906250000000         6.704572987598853E-014
   80.9043750000000         6.746855691968440E-014
   81.1181250000000         6.793121973919349E-014
   81.3318750000000         6.845783934100024E-014
   81.5456250000000         6.907039736832366E-014
   81.7593750000000         6.978654078359047E-014
   81.9731250000000         7.061748767199348E-014
   82.1868750000000         7.156622621725134E-014
   82.4006250000000         7.262619930402391E-014
   82.6143750000000         7.378065164675799E-014
   82.8281250000000         7.500278340277740E-014
   83.0418750000000         7.625680417170304E-014
   83.2556250000000         7.749991556731069E-014
   83.4693750000000         7.868517265682147E-014
   83.6831250000000         7.976508932463029E-014
   83.8968750000000         8.069576701570035E-014
   84.1106250000000         8.144124794799543E-014
   84.3243750000000         8.197773148985227E-014
   84.5381250000000         8.229725452978198E-014
   84.7518750000000         8.241043057243966E-014
   84.9656250000000         8.234787380783616E-014
   85.1793750000000         8.216000599816444E-014
   85.3931250000000         8.191505459742056E-014
   85.6068750000000         8.169519504924218E-014
   85.8206250000000         8.159095890945021E-014
   86.0343750000000         8.169420913959950E-014
   86.2481250000000         8.209015773961725E-014
   86.4618750000000         8.284905073647165E-014
   86.6756250000000         8.401825297669604E-014
   86.8893750000000         8.561551368730968E-014
   87.1031250000000         8.762417129588138E-014
   87.3168750000000         8.999095570742594E-014
   87.5306250000000         9.262686940156348E-014
   87.7443750000000         9.541138426017212E-014
   87.9581250000000         9.819989657431134E-014
   88.1718750000000         1.008340627840896E-013
   88.3856250000000         1.031543235601186E-013
   88.5993750000000         1.050136468148516E-013
   88.8131250000000         1.062913136237781E-013
   89.0268750000000         1.069054633078851E-013
   89.2406250000000         1.068231257192183E-013
   89.4543750000000         1.060666098522181E-013
   89.6681250000000         1.047153854407973E-013
   89.8818750000000         1.029029709410219E-013
   90.0956250000000         1.008087971231970E-013
   90.3093750000000         9.864550862706194E-014
   90.5231250000000         9.664264709780689E-014
   90.7368750000000         9.502807671452912E-014
   90.9506250000000         9.400881657304799E-014
   91.1643750000000         9.375309349176095E-014
   91.3781250000000         9.437539621495476E-014
   91.5918750000000         9.592608835837428E-014
   91.8056250000000         9.838673430763123E-014
   92.0193750000000         1.016717417996384E-013
   92.2331250000000         1.056362784797693E-013
   92.4468750000000         1.100897432992955E-013
   92.6606250000000         1.148134414446270E-013
   92.8743750000000         1.195805983847502E-013
   93.0881250000000         1.241765213014624E-013
   93.3018750000000         1.284166248306312E-013
   93.5156250000000         1.321602095724212E-013
   93.7293750000000         1.353183144861143E-013
   93.9431250000000         1.378546257656424E-013
   94.1568750000000         1.397792535918861E-013
   94.3706250000000         1.411360979666736E-013
   94.5843750000000         1.419854131874053E-013
   94.7981250000000         1.423839384294979E-013
   95.0118750000000         1.423654867592485E-013
   95.2256250000000         1.419250925942176E-013
   95.4393750000000         1.410096534907238E-013
   95.6531250000000         1.395174504228789E-013
   95.8668750000000         1.373080192763781E-013
   96.0806250000000         1.342226471349992E-013
   96.2943750000000         1.301143924966712E-013
   96.5081250000000         1.248851216458927E-013
   96.7218750000000         1.185257743069671E-013
   96.9356250000000         1.111550819279020E-013
   97.1493750000000         1.030514057094087E-013
   97.3631250000000         9.467234902588192E-014
   97.5768750000000         8.665739109880050E-014
   97.7906250000000         7.980998640347602E-014
   98.0043750000000         7.505731282232330E-014
   98.2181250000000         7.338800283926249E-014
   98.4318750000000         7.577057259913935E-014
   98.6456250000000         8.305764936102835E-014
   98.8593750000000         9.588324434004204E-014
   99.0731250000000         1.145619843660894E-013
   99.2868750000000         1.390001893777674E-013
   99.5006250000000         1.686288029431682E-013
   99.7143750000000         2.023673605700855E-013
   99.9281250000000         2.386264122249480E-013
   100.141875000000         2.753531886828013E-013
   100.355625000000         3.101219925519677E-013
   100.569375000000         3.402670562459788E-013
   100.783125000000         3.630517500668538E-013
   100.996875000000         3.758643825002787E-013
   101.210625000000         3.764277495718754E-013
   101.424375000000         3.630073656596189E-013
   101.638125000000         3.346021867101425E-013
   101.851875000000         2.911017726855840E-013
   102.065625000000         2.333952786881139E-013
   102.279375000000         1.634203498819956E-013
   102.493125000000         8.414375038358749E-014
   102.706875000000        -5.298899042868686E-016
   102.920625000000        -8.591981865201878E-014
   103.134375000000        -1.667949296310148E-013
   103.348125000000        -2.376523511055672E-013
   103.561875000000        -2.930336135613531E-013
   103.775625000000        -3.278601385568045E-013
   103.989375000000        -3.377680160885861E-013
   104.203125000000        -3.194216262896429E-013
   104.416875000000        -2.707866174622190E-013
   104.630625000000        -1.913449692675180E-013
   104.844375000000        -8.223814166303951E-014
   105.058125000000         5.367164437762983E-014
   105.271875000000         2.118274561489207E-013
   105.485625000000         3.860918903111447E-013
   105.699375000000         5.689459770345600E-013
   105.913125000000         7.517653026840492E-013
   106.126875000000         9.251626558669077E-013
   106.340625000000         1.079384017588320E-012
   106.554375000000         1.204743008449006E-012
   106.768125000000         1.292077900907047E-012
   106.981875000000         1.333214864502485E-012
   107.195625000000         1.321421061199824E-012
   107.409375000000         1.251831364839806E-012
   107.623125000000         1.121832688568257E-012
   107.836875000000         9.313900688198862E-013
   108.050625000000         6.832987553877450E-013
   108.264375000000         3.833466675902368E-013
   108.478125000000         4.037186193347101E-014
   108.691875000000        -3.337996386862386E-013
   108.905625000000        -7.245488838156282E-013
   109.119375000000        -1.114802683229047E-012
   109.333125000000        -1.485522964537100E-012
   109.546875000000        -1.816348543121672E-012
   109.760625000000        -2.086384165153564E-012
   109.974375000000        -2.275123274114998E-012
   110.188125000000        -2.363481272519669E-012
   110.401875000000        -2.334905558790333E-012
   110.615625000000        -2.176517955199211E-012
   110.829375000000        -1.880235103738585E-012
   111.043125000000        -1.443803897616685E-012
   111.256875000000        -8.716829850839741E-013
   111.470625000000        -1.756987444167780E-013
   111.684375000000         6.245943171776307E-013
   111.898125000000         1.501912441510291E-012
   112.111875000000         2.421653008294707E-012
   112.325625000000         3.342752086961377E-012
   112.539375000000         4.219003483929496E-012
   112.753125000000         5.000828325955274E-012
   112.966875000000         5.637456095528046E-012
   113.180625000000         6.079448549306067E-012
   113.394375000000         6.281468841104279E-012
   113.608125000000         6.205171343582838E-012
   113.821875000000         5.822065082481988E-012
   114.035625000000         5.116187263162649E-012
   114.249375000000         4.086414785783326E-012
   114.463125000000         2.748242296590249E-012
   114.676875000000         1.134866157858356E-012
   114.890625000000        -7.025648424472951E-013
   115.104375000000        -2.695639358555022E-012
   115.318125000000        -4.760379783713552E-012
   115.531875000000        -6.799961219870212E-012
   115.745625000000        -8.708413689192435E-012
   115.959375000000        -1.037520903190257E-011
   116.173125000000        -1.169057441796635E-011
   116.386875000000        -1.255131785250989E-011
   116.600625000000        -1.286690097899073E-011
   116.814375000000        -1.256545434003967E-011
   117.028125000000        -1.159940326330960E-011
   117.241875000000        -9.950361476839939E-012
   117.455625000000        -7.632956565081539E-012
   117.669375000000        -4.697277775136828E-012
   117.883125000000        -1.229682823719625E-012
   118.096875000000         2.648234494479473E-012
   118.310625000000         6.782631820533977E-012
   118.524375000000         1.099238042821999E-011
   118.738125000000         1.507591535162430E-011
   118.951875000000         1.881977552753665E-011
   119.165625000000         2.200852588978539E-011
   119.379375000000         2.443565058417342E-011
   119.593125000000         2.591491761260530E-011
   119.806875000000         2.629164658772311E-011
   120.020625000000         2.545326860324837E-011
   120.234375000000         2.333855520784266E-011
   120.448125000000         1.994491542606022E-011
   120.661875000000         1.533321728668037E-011
   120.875625000000         9.629683002519343E-012
   121.089375000000         3.024532268446682E-012
   121.303125000000        -4.232798586063294E-012
   121.516875000000        -1.184185938308566E-011
   121.730625000000        -1.946262149075097E-011
   121.944375000000        -2.672976667650041E-011
   122.158125000000        -3.326926860499665E-011
   122.371875000000        -3.871654378395793E-011
   122.585625000000        -4.273531638392326E-011
   122.799375000000        -4.503624860264302E-011
   123.013125000000        -4.539434294251385E-011
   123.226875000000        -4.366413036184001E-011
   123.440625000000        -3.979172131464989E-011
   123.654375000000        -3.382291457930436E-011
   123.868125000000        -2.590672753573073E-011