  -1.60312500000000        -2.403142085020961E-023
  -1.38937500000000        -1.030714441961190E-017
  -1.17562500000000        -9.621479006611064E-017
 -0.961875000000000        -5.596862473119917E-016
 -0.748125000000000        -2.523505220341108E-015
 -0.534375000000000        -9.489311034243944E-015
 -0.320625000000000        -3.074019052767210E-014
 -0.106875000000000        -8.735106081688571E-014
  0.106875000000000        -2.209909729120842E-013
  0.320625000000000        -5.039312329999629E-013
  0.534375000000000        -1.046775343310660E-012
  0.748125000000000        -2.001855375364901E-012
  0.961875000000000        -3.557225312003013E-012
   1.17562500000000        -5.922177902136557E-012
   1.38937500000000        -9.305827623489067E-012
   1.60312500000000        -1.389031565874470E-011
   1.81687500000000        -1.980294093711590E-011
   2.03062500000000        -2.708936718291402E-011
   2.24437500000000        -3.569555580811133E-011
   2.45812500000000        -4.545610276611761E-011
   2.67187500000000        -5.609402663307779E-011
   2.88562500000000        -6.723939129337265E-011
   3.09937500000000        -7.845407504057842E-011
   3.31312500000000        -8.926437818343785E-011
   3.52687500000000        -9.920577577380749E-011
   3.74062500000000        -1.078676298031472E-010
   3.95437500000000        -1.149301539735208E-010
   4.16812500000000        -1.201898398829734E-010
   4.38187500000000        -1.235590014159757E-010
   4.59562500000000        -1.250884747117197E-010
   4.80937500000000        -1.249187229318235E-010
   5.02312500000000        -1.232598790025383E-010
   5.23687500000000        -1.203667243012097E-010
   5.45062500000000        -1.164852673059805E-010
   5.66437500000000        -1.118448049732367E-010
   5.87812500000000        -1.066285958961855E-010
   6.09187500000000        -1.009889237961947E-010
   6.30562500000000        -9.506690357208137E-011
   6.51937500000000        -8.901602426737600E-011
   6.73312500000000        -8.303796410981905E-011
   6.94687500000000        -7.740493762000017E-011
   7.16062500000000        -7.247190367781948E-011
   7.37437500000000        -6.866392666203081E-011
   7.58812500000000        -6.644632028963724E-011
   7.80187500000000        -6.627061794937283E-011
   8.01562500000000        -6.849792084541311E-011
   8.22937500000000        -7.333335353025105E-011
   8.44312500000000        -8.076890701099798E-011
   8.65687500000000        -9.054403404674958E-011
   8.87062500000000        -1.021307140955988E-010
   9.08437500000000        -1.147780878284071E-010
   9.29812500000000        -1.275745517130983E-010
   9.51187500000000        -1.395580004363532E-010
   9.72562500000000        -1.498089482860283E-010
   9.93937500000000        -1.575798064774596E-010
   10.1531250000000        -1.623728137173824E-010
   10.3668750000000        -1.640042582074235E-010
   10.5806250000000        -1.626171651879606E-010
   10.7943750000000        -1.586405994501645E-010
   11.0081250000000        -1.527263772071222E-010
   11.2218750000000        -1.456345480786029E-010
   11.4356250000000        -1.381372118730651E-010
   11.6493750000000        -1.309027023811613E-010
   11.8631250000000        -1.244255555632369E-010
   12.0768750000000        -1.189907973481689E-010
   12.2906250000000        -1.146767213801779E-010
   12.5043750000000        -1.114087971999934E-010
   12.7181250000000        -1.090114124593382E-010
   12.9318750000000        -1.073197044390188E-010
   13.1456250000000        -1.062334969135040E-010
   13.3593750000000        -1.057831330152070E-010
   13.5731250000000        -1.061392212609651E-010
   13.7868750000000        -1.075837733364862E-010
   14.0006250000000        -1.104589033880376E-010
   14.2143750000000        -1.150631040197703E-010
   14.4281250000000        -1.215800705848557E-010
   14.6418750000000        -1.299877691099807E-010
   14.8556250000000        -1.400165868704841E-010
   15.0693750000000        -1.511530085051571E-010
   15.2831250000000        -1.626717519043855E-010
   15.4968750000000        -1.737413114171004E-010
   15.7106250000000        -1.835302130740221E-010
   15.9243750000000        -1.913496164082303E-010
   16.1381250000000        -1.967470105470993E-010
   16.3518750000000        -1.995954796262654E-010
   16.5656250000000        -2.001194452917480E-010
   16.7793750000000        -1.988754879781981E-010
   16.9931250000000        -1.966500732822268E-010
   17.2068750000000        -1.943548314025551E-010
   17.4206250000000        -1.928721228089283E-010
   17.6343750000000        -1.929045858728934E-010
   17.8481250000000        -1.948808021365891E-010
   18.0618750000000        -1.988627375464301E-010
   18.2756250000000        -2.045473537881006E-010
   18.4893750000000        -2.113006281680950E-010
   18.7031250000000        -2.182679552128885E-010
   18.9168750000000        -2.244954394587700E-010
   19.1306250000000        -2.290846168386528E-010
   19.3443750000000        -2.313345452334132E-010
   19.5581250000000        -2.308455849651609E-010
   19.7718750000000        -2.275979327190084E-010
   19.9856250000000        -2.219554783610179E-010
   20.1993750000000        -2.146196045144099E-010
   20.4131250000000        -2.065582157210022E-010
   20.6268750000000        -1.988722491434163E-010
   20.8406250000000        -1.926751503030381E-010
   21.0543750000000        -1.889562621845386E-010
   21.2681250000000        -1.884727596676096E-010
   21.4818750000000        -1.916929938993710E-010
   21.6956250000000        -1.987375331264461E-010
   21.9093750000000        -2.094094143556013E-010
   22.1231250000000        -2.232267572992802E-010
   22.3368750000000        -2.394955201262678E-010
   22.5506250000000        -2.573944517903367E-010
   22.7643750000000        -2.760687650361911E-010
   22.9781250000000        -2.947088412566987E-010
   23.1918750000000        -3.126145453190355E-010
   23.4056250000000        -3.292354303540805E-010
   23.6193750000000        -3.441850625962068E-010
   23.8331250000000        -3.572457179740042E-010
   24.0468750000000        -3.683194521148399E-010
   24.2606250000000        -3.774158413446287E-010
   24.4743750000000        -3.845847256291072E-010
   24.6881250000000        -3.899021511503554E-010
   24.9018750000000        -3.934316756749146E-010
   25.1156250000000        -3.952087838354101E-010
   25.3293750000000        -3.952589233339087E-010
   25.5431250000000        -3.936252581841381E-010
   25.7568750000000        -3.903867925050713E-010
   25.9706250000000        -3.857226542007085E-010
   26.1843750000000        -3.799257574068653E-010
   26.3981250000000        -3.734445795691138E-010
   26.6118750000000        -3.668783758229784E-010
   26.8256250000000        -3.609567826815921E-010
   27.0393750000000        -3.564957828456855E-010
   27.2531250000000        -3.543197723281996E-010
   27.4668750000000        -3.551752009013436E-010
   27.6806250000000        -3.596508439373970E-010
   27.8943750000000        -3.680866220968829E-010
   28.1081250000000        -3.805218506620064E-010
   28.3218750000000        -3.966534470626982E-010
   28.5356250000000        -4.158708157661135E-010
   28.7493750000000        -4.372717154986425E-010
   28.9631250000000        -4.597773158601175E-010
   29.1768750000000        -4.822179983164482E-010
   29.3906250000000        -5.034582349174210E-010
   29.6043750000000        -5.224976763475025E-010
   29.8181250000000        -5.385744176439673E-010
   30.0318750000000        -5.512021417615330E-010
   30.2456250000000        -5.602057791224590E-010
   30.4593750000000        -5.656861752866394E-010
   30.6731250000000        -5.679786874376211E-010
   30.8868750000000        -5.675679102994532E-010
   31.1006250000000        -5.650051574341301E-010
   31.3143750000000        -5.608385392096702E-010
   31.5281250000000        -5.555380674291669E-010
   31.7418750000000        -5.494693872940676E-010
   31.9556250000000        -5.428916089468880E-010
   32.1693750000000        -5.359654004057255E-010
   32.3831250000000        -5.288070054771824E-010
   32.5968750000000        -5.215314791040708E-010
   32.8106250000000        -5.142959848373693E-010
   33.0243750000000        -5.073429068573111E-010
   33.2381250000000        -5.010008805917569E-010
   33.4518750000000        -4.956793633481030E-010
   33.6656250000000        -4.918332128911603E-010
   33.8793750000000        -4.899143089778111E-010
   34.0931250000000        -4.903050771676822E-010
   34.3068750000000        -4.932728972868700E-010
   34.5206250000000        -4.989210785204757E-010
   34.7343750000000        -5.071731110315025E-010
   34.9481250000000        -5.177768457652450E-010
   35.1618750000000        -5.303321816853730E-010
   35.3756250000000        -5.443441551745158E-010
   35.5893750000000        -5.592935347506516E-010
   35.8031250000000        -5.746942675778315E-010
   36.0168750000000        -5.901577596814107E-010
   36.2306250000000        -6.054394081071884E-010
   36.4443750000000        -6.204444850561619E-010
   36.6581250000000        -6.352335966789702E-010
   36.8718750000000        -6.499708891012844E-010
   37.0856250000000        -6.648889912163692E-010
   37.2993750000000        -6.802014530808273E-010
   37.5131250000000        -6.960587846909579E-010
   37.7268750000000        -7.124683345868505E-010
   37.9406250000000        -7.292775129350067E-010
   38.1543750000000        -7.461537782438365E-010
   38.3681250000000        -7.626234362178146E-010
   38.5818750000000        -7.781019932562081E-010
   38.7956250000000        -7.919790797044554E-010
   39.0093750000000        -8.037062981131644E-010
   39.2231250000000        -8.128711622974987E-010
   39.4368750000000        -8.192898078529197E-010
   39.6506250000000        -8.230249529050096E-010
   39.8643750000000        -8.244256829232542E-010
   40.0781250000000        -8.240803082707092E-010
   40.2918750000000        -8.227730529927300E-010
   40.5056250000000        -8.213897503210374E-010
   40.7193750000000        -8.208107643478071E-010
   40.9331250000000        -8.218051292754482E-010
   41.1468750000000        -8.249514384859473E-010
   41.3606250000000        -8.305682975187043E-010
   41.5743750000000        -8.386954194840199E-010
   41.7881250000000        -8.491138706712003E-010
   42.0018750000000        -8.613968055419705E-010
   42.2156250000000        -8.749995911738102E-010
   42.4293750000000        -8.893536848079618E-010
   42.6431250000000        -9.039608469046685E-010
   42.8568750000000        -9.184577331225966E-010
   43.0706250000000        -9.326581628007534E-010
   43.2843750000000        -9.465466589677828E-010
   43.4981250000000        -9.602395989574264E-010
   43.7118750000000        -9.739039833860236E-010
   43.9256250000000        -9.876752783058395E-010
   44.1393750000000        -1.001556862644421E-009
   44.3531250000000        -1.015368850385786E-009
   44.5668750000000        -1.028701331246561E-009
   44.7806250000000        -1.040938595041320E-009
   44.9943750000000        -1.051318193383001E-009
   45.2081250000000        -1.059032727594337E-009
   45.4218750000000        -1.063353812786054E-009
   45.6356250000000        -1.063767926110366E-009
   45.8493750000000        -1.060072676754117E-009
   46.0631250000000        -1.052459024573786E-009
   46.2768750000000        -1.041524340196568E-009
   46.4906250000000        -1.028238178437770E-009
   46.7043750000000        -1.013838072391729E-009
   46.9181250000000        -9.997002767833779E-010
   47.1318750000000        -9.871841676634386E-010
   47.3456250000000        -9.774777908563432E-010
   47.5593750000000        -9.714725480222498E-010
   47.7731250000000        -9.696842598133759E-010
   47.9868750000000        -9.722234259778042E-010
   48.2006250000000        -9.788395391754783E-010
   48.4143750000000        -9.889930779861905E-010
   48.6281250000000        -1.001976751959465E-009
   48.8418750000000        -1.017044222524715E-009
   49.0556250000000        -1.033528699108547E-009
   49.2693750000000        -1.050943017409320E-009
   49.4831250000000        -1.069010332703997E-009
   49.6968750000000        -1.087679564543574E-009
   49.9106250000000        -1.107065542269574E-009
   50.1243750000000        -1.127380916608748E-009
   50.3381250000000        -1.148828490130004E-009
   50.5518750000000        -1.171513539750889E-009
   50.7656250000000        -1.195366522233869E-009
   50.9793750000000        -1.220100125465446E-009
   51.1931250000000        -1.245222946469330E-009
   51.4068750000000        -1.270069969389823E-009
   51.6206250000000        -1.293898638754477E-009
   51.8343750000000        -1.315975644279522E-009
   52.0481250000000        -1.335692110002638E-009
   52.2618750000000        -1.352638746044357E-009
   52.4756250000000        -1.366677249997685E-009
   52.6893750000000        -1.377960333842811E-009
   52.9031250000000        -1.386906649438575E-009
   53.1168750000000        -1.394140149371622E-009
   53.3306250000000        -1.400398725264816E-009
   53.5443750000000        -1.406436720287798E-009
   53.7581250000000        -1.412918735486030E-009
   53.9718750000000        -1.420355322167393E-009
   54.1856250000000        -1.429018737114246E-009
   54.3993750000000        -1.438963524003371E-009
   54.6131250000000        -1.450027229626154E-009
   54.8268750000000        -1.461893742730056E-009
   55.0406250000000        -1.474166091104900E-009
   55.2543750000000        -1.486451632566648E-009
   55.4681250000000        -1.498439527789658E-009
   55.6818750000000        -1.509953806830195E-009
   55.8956250000000        -1.520978600423567E-009
   56.1093750000000        -1.531652164548278E-009
   56.3231250000000        -1.542231123284115E-009
   56.5368750000000        -1.553022208598193E-009
   56.7506250000000        -1.564309003940641E-009
   56.9643750000000        -1.576279686397425E-009
   57.1781250000000        -1.588964627055728E-009
   57.3918750000000        -1.602209706472977E-009
   57.6056250000000        -1.615660454311370E-009
   57.8193750000000        -1.628811732982615E-009
   58.0331250000000        -1.641065469170015E-009
   58.2468750000000        -1.651793880264837E-009
   58.4606250000000        -1.660440826548815E-009
   58.6743750000000        -1.666602721409042E-009
   58.8881250000000        -1.670085930953733E-009
   59.1018750000000        -1.670924796458049E-009
   59.3156250000000        -1.669407878697573E-009
   59.5293750000000        -1.666018517073773E-009
   59.7431250000000        -1.661392191506713E-009
   59.9568750000000        -1.656227953765703E-009
   60.1706250000000        -1.651228127800844E-009
   60.3843750000000        -1.647016897372820E-009
   60.5981250000000        -1.644089488616442E-009
   60.8118750000000        -1.642791699358713E-009
   61.0256250000000        -1.643313503064651E-009
   61.2393750000000        -1.645705159181338E-009
   61.4531250000000        -1.649942705063634E-009
   61.6668750000000        -1.655935963910961E-009
   61.8806250000000        -1.663610728987795E-009
   62.0943750000000        -1.672913100527254E-009
   62.3081250000000        -1.683855472420765E-009
   62.5218750000000        -1.696500359744207E-009
   62.7356250000000        -1.710952297117065E-009
   62.9493750000000        -1.727345488680454E-009
   63.1631250000000        -1.745798246331532E-009
   63.3768750000000        -1.766380902735642E-009
   63.5906250000000        -1.789098314463040E-009
   63.8043750000000        -1.813863020302914E-009
   64.0181250000000        -1.840494346043036E-009
   64.2318750000000        -1.868701664872377E-009
   64.4456250000000        -1.898110436983558E-009
   64.6593750000000        -1.928258134309281E-009
   64.8731250000000        -1.958615172932924E-009
   65.0868750000000        -1.988606022955628E-009
   65.3006250000000        -2.017626612082725E-009
   65.5143750000000        -2.045075792419032E-009
   65.7281250000000        -2.070387515485146E-009
   65.9418750000000        -2.093064745231401E-009
   66.1556250000000        -2.112733816219223E-009
   66.3693750000000        -2.129175907290723E-009
   66.5831250000000        -2.142373983089349E-009
   66.7968750000000        -2.152522060736599E-009
   67.0106250000000        -2.160052191130928E-009
   67.2243750000000        -2.165591700892137E-009
   67.4381250000000        -2.169934466591356E-009
   67.6518750000000        -2.173953350968277E-009
   67.8656250000000        -2.178528616519505E-009
   68.0793750000000        -2.184453740863057E-009
   68.2931250000000        -2.192337545945710E-009
   68.5068750000000        -2.202552436455891E-009
   68.7206250000000        -2.215190423652128E-009
   68.9343750000000        -2.230071265666259E-009
   69.1481250000000        -2.246781496670040E-009
   69.3618750000000        -2.264729512252217E-009
   69.5756250000000        -2.283258705201612E-009
   69.7893750000000        -2.301720221901100E-009
   70.0031250000000        -2.319563010689593E-009
   70.2168750000000        -2.336395027655562E-009
   70.4306250000000        -2.352000429587808E-009
   70.6443750000000        -2.366335485983875E-009
   70.8581250000000        -2.379489194161429E-009
   71.0718750000000        -2.391612128453268E-009
   71.2856250000000        -2.402863388288803E-009
   71.4993750000000        -2.413341327847075E-009
   71.7131250000000        -2.423055269876253E-009
   71.9268750000000        -2.431917512074737E-009
   72.1406250000000        -2.439761367969583E-009
   72.3543750000000        -2.446409290534596E-009
   72.5681250000000        -2.451712203747908E-009
   72.7818750000000        -2.455649727323376E-009
   72.9956250000000        -2.458342986481161E-009
   73.2093750000000        -2.460104264352071E-009
   73.4231250000000        -2.461410999387373E-009
   73.6368750000000        -2.462859359548304E-009
   73.8506250000000        -2.465089504499615E-009
   74.0643750000000        -2.468695042228251E-009
   74.2781250000000        -2.474136089254288E-009
   74.4918750000000        -2.481667387259966E-009
   74.7056250000000        -2.491312182306632E-009
   74.9193750000000        -2.502850092811400E-009
   75.1331250000000        -2.515879028860109E-009
   75.3468750000000        -2.529893121526260E-009
   75.5606250000000        -2.544364587105627E-009
   75.7743750000000        -2.558864175300064E-009
   75.9881250000000        -2.573129110020552E-009
   76.2018750000000        -2.587121247177424E-009
   76.4156250000000        -2.601037675557409E-009
   76.6293750000000        -2.615267435394887E-009
   76.8431250000000        -2.630338057888957E-009
   77.0568750000000        -2.646796754838651E-009
   77.2706250000000        -2.665124466544950E-009
   77.4843750000000        -2.685639919909744E-009
   77.6981250000000        -2.708420127290294E-009
   77.9118750000000        -2.733290851218805E-009
   78.1256250000000        -2.759822295059444E-009
   78.3393750000000        -2.787390025748258E-009
   78.5531250000000        -2.815254489053421E-009
   78.7668750000000        -2.842663102347202E-009
   78.9806250000000        -2.868943867578683E-009
   79.1943750000000        -2.893581133705372E-009
   79.4081250000000        -2.916284701142511E-009
   79.6218750000000        -2.936979944003865E-009
   79.8356250000000        -2.955820572388297E-009
   80.0493750000000        -2.973113385729713E-009
   80.2631250000000        -2.989269828947877E-009
   80.4768750000000        -3.004709588058280E-009
   80.6906250000000        -3.019805697491161E-009
   80.9043750000000        -3.034838928287178E-009
   81.1181250000000        -3.049951113194642E-009
   81.3318750000000        -3.065150892687253E-009
   81.5456250000000        -3.080361154108307E-009
   81.7593750000000        -3.095434522954499E-009
   81.9731250000000        -3.110228740003621E-009
   82.1868750000000        -3.124646394282660E-009
   82.4006250000000        -3.138686700046427E-009
   82.6143750000000        -3.152457737476224E-009
   82.8281250000000        -3.166180642067030E-009
   83.0418750000000        -3.180159266310645E-009
   83.2556250000000        -3.194750229439700E-009
   83.4693750000000        -3.210288886275393E-009
   83.6831250000000        -3.227042923556279E-009
   83.8968750000000        -3.245166022759265E-009
   84.1106250000000        -3.264640608517074E-009
   84.3243750000000        -3.285301601025968E-009
   84.5381250000000        -3.306817035954828E-009
   84.7518750000000        -3.328724022034616E-009
   84.9656250000000        -3.350495536664104E-009
   85.1793750000000        -3.371589000529932E-009
   85.3931250000000        -3.391530093011366E-009
   85.6068750000000        -3.409926715024661E-009
   85.8206250000000        -3.426543166092017E-009
   86.0343750000000        -3.441292319783551E-009
   86.2481250000000        -3.454236666920792E-009
   86.4618750000000        -3.465574404611095E-009
   86.6756250000000        -3.475554222161447E-009
   86.8893750000000        -3.484469640130929E-009
   87.1031250000000        -3.492579946388292E-009
   87.3168750000000        -3.500093918598421E-009
   87.5306250000000        -3.507125600295730E-009
   87.7443750000000        -3.513719443895530E-009
   87.9581250000000        -3.519863982947763E-009
   88.1718750000000        -3.525521058257819E-009
   88.3856250000000        -3.530685937979983E-009
   88.5993750000000        -3.535430272908498E-009
   88.8131250000000        -3.539920188343002E-009
   89.0268750000000        -3.544472570802907E-009
   89.2406250000000        -3.549506200133001E-009
   89.4543750000000        -3.555549234121252E-009
   89.6681250000000        -3.563158526429775E-009
   89.8818750000000        -3.572884016421583E-009
   90.0956250000000        -3.585185235808239E-009
   90.3093750000000        -3.600377935972995E-009
   90.5231250000000        -3.618592037987820E-009
   90.7368750000000        -3.639747841303091E-009
   90.9506250000000        -3.663558963757640E-009
   91.1643750000000        -3.689585366135694E-009
   91.3781250000000        -3.717261310537610E-009
   91.5918750000000        -3.745982726944040E-009
   91.8056250000000        -3.775162377306795E-009
   92.0193750000000        -3.804300401663805E-009
   92.2331250000000        -3.833013841616293E-009
   92.4468750000000        -3.861076925660724E-009
   92.6606250000000        -3.888400611063068E-009
   92.8743750000000        -3.915012581372157E-009
   93.0881250000000        -3.941024382562554E-009
   93.3018750000000        -3.966562522896921E-009
   93.5156250000000        -3.991725813284475E-009
   93.7293750000000        -4.016542735378085E-009
   93.9431250000000        -4.040955135995336E-009
   94.1568750000000        -4.064781832706384E-009
   94.3706250000000        -4.087765847812388E-009
   94.5843750000000        -4.109603886509030E-009
   94.7981250000000        -4.129977270624430E-009
   95.0118750000000        -4.148632369187391E-009
   95.2256250000000        -4.165431558225364E-009
   95.4393750000000        -4.180379204765721E-009
   95.6531250000000        -4.193695486007573E-009
   95.8668750000000        -4.205784085687226E-009
   96.0806250000000        -4.217222746065222E-009
   96.2943750000000        -4.228749051810904E-009
   96.5081250000000        -4.241158016061399E-009
   96.7218750000000        -4.255249753946717E-009
   96.9356250000000        -4.271754476368144E-009
   97.1493750000000        -4.291225350611869E-009
   97.3631250000000        -4.313990571618487E-009
   97.5768750000000        -4.340114319560768E-009
   97.7906250000000        -4.369384719686113E-009
   98.0043750000000        -4.401328762757759E-009
   98.2181250000000        -4.435246761401418E-009
   98.4318750000000        -4.470314854502214E-009
   98.6456250000000        -4.505644480334335E-009
   98.8593750000000        -4.540390804297262E-009
   99.0731250000000        -4.573803846918337E-009
   99.2868750000000        -4.605321934429388E-009
   99.5006250000000        -4.634565074434264E-009
   99.7143750000000        -4.661358765247368E-009
   99.9281250000000        -4.685659624916640E-009
   100.141875000000        -4.707545049104196E-009
   100.355625000000        -4.727120012898363E-009
   100.569375000000        -4.744441895593435E-009
   100.783125000000        -4.759497953481464E-009
   100.996875000000        -4.772176478347962E-009
   101.210625000000        -4.782280472035829E-009
   101.424375000000        -4.789589355952646E-009
   101.638125000000        -4.793916720407608E-009
   101.851875000000        -4.795229747170207E-009
   102.065625000000        -4.793714230226215E-009
   102.279375000000        -4.789846653568028E-009
   102.493125000000        -4.784425962867556E-009
   102.706875000000        -4.778550053643587E-009
   102.920625000000        -4.773543939212214E-009
   103.134375000000        -4.770855081611717E-009
   103.348125000000        -4.771889612596580E-009
   103.561875000000        -4.777875779563390E-009
   103.775625000000        -4.789709912877772E-009
   103.989375000000        -4.807840237569923E-009
   104.203125000000        -4.832215269676997E-009
   104.416875000000        -4.862268469832642E-009
   104.630625000000        -4.896994275203297E-009
   104.844375000000        -4.935048628853413E-009
   105.058125000000        -4.974902316545293E-009
   105.271875000000        -5.015009779987437E-009
   105.485625000000        -5.053973833221930E-009
   105.699375000000        -5.090679977325146E-009
   105.913125000000        -5.124376724125566E-009
   106.126875000000        -5.154733328932757E-009
   106.340625000000        -5.181804980498484E-009
   106.554375000000        -5.205997896097697E-009
   106.768125000000        -5.227949444545140E-009
   106.981875000000        -5.248430115385445E-009
   107.195625000000        -5.268223569399387E-009
   107.409375000000        -5.288025454295028E-009
   107.623125000000        -5.308365458569673E-009
   107.836875000000        -5.329556827149145E-009
   108.050625000000        -5.351688471574575E-009
   108.264375000000        -5.374614340327860E-009
   108.478125000000        -5.398023045875695E-009
   108.691875000000        -5.421457569088797E-009
   108.905625000000        -5.444394215121462E-009
   109.119375000000        -5.466296542931241E-009
   109.333125000000        -5.486667972328087E-009
   109.546875000000        -5.505113847721327E-009
   109.760625000000        -5.521391469699118E-009
   109.974375000000        -5.535442289016275E-009
   110.188125000000        -5.547411551148452E-009
   110.401875000000        -5.557684356213219E-009
   110.615625000000        -5.566880462612887E-009
   110.829375000000        -5.575828973674333E-009
   111.043125000000        -5.585562183033641E-009
   111.256875000000        -5.597243229557618E-009
   111.470625000000        -5.612112476926536E-009
   111.684375000000        -5.631398836532425E-009
   111.898125000000        -5.656254886544052E-009
   112.111875000000        -5.687637407158730E-009
   112.325625000000        -5.726246463766578E-009
   112.539375000000        -5.772449122509623E-009
   112.753125000000        -5.826227888059060E-009
   112.966875000000        -5.887161090738572E-009
   113.180625000000        -5.954401544182903E-009
   113.394375000000        -6.026703205738311E-009
   113.608125000000        -6.102454992660022E-009
   113.821875000000        -6.179727023658986E-009
   114.035625000000        -6.256334139362887E-009
   114.249375000000        -6.329922538880285E-009
   114.463125000000        -6.398030619530639E-009
   114.676875000000        -6.458203653433375E-009
   114.890625000000        -6.508093343735117E-009
   115.104375000000        -6.545577055634878E-009
   115.318125000000        -6.568870542982238E-009
   115.531875000000        -6.576678688364075E-009
   115.745625000000        -6.568303258304308E-009
   115.959375000000        -6.543764486080781E-009
   116.173125000000        -6.503896144784158E-009
   116.386875000000        -6.450397850197653E-009
   116.600625000000        -6.385820217236760E-009
   116.814375000000        -6.313552425450506E-009
   117.028125000000        -6.237646511397777E-009
   117.241875000000        -6.162698676016253E-009
   117.455625000000        -6.093576531609076E-009
   117.669375000000        -6.035189165514285E-009
   117.883125000000        -5.992168749553855E-009
   118.096875000000        -5.968609394108110E-009
   118.310625000000        -5.967805581391310E-009
   118.524375000000        -5.992034471186780E-009
   118.738125000000        -6.042398601196942E-009
   118.951875000000        -6.118750822446482E-009
   119.165625000000        -6.219668668257052E-009
   119.379375000000        -6.342525082099573E-009
   119.593125000000        -6.483588228383002E-009
   119.806875000000        -6.638219491594061E-009
   120.020625000000        -6.801058176977589E-009
   120.234375000000        -6.966256530647612E-009
   120.448125000000        -7.127741483802809E-009
   120.661875000000        -7.279432407922590E-009
   120.875625000000        -7.415506296462706E-009
   121.089375000000        -7.530625916479790E-009
   121.303125000000        -7.620154984119435E-009
   121.516875000000        -7.680365401644002E-009
   121.730625000000        -7.708636566544185E-009
   121.944375000000        -7.703604396840056E-009
   122.158125000000        -7.665288405490139E-009
   122.371875000000        -7.595207868023637E-009
   122.585625000000        -7.496367458597085E-009
   122.799375000000        -7.373260164340439E-009
   123.013125000000        -7.231741682037469E-009
   123.226875000000        -7.078847055964929E-009
   123.440625000000        -6.922519632533028E-009
   123.654375000000        -6.771283515526461E-009
   123.868125000000        -6.633837538302968E-009