  -1.60312500000000         1.523270274827173E-024
  -1.38937500000000         1.325569186135519E-023
  -1.17562500000000         7.547687125468314E-023
 -0.961875000000000         3.233910481039603E-022
 -0.748125000000000         1.088415916833999E-021
 -0.534375000000000         2.826225286177207E-021
 -0.320625000000000         4.908791548912856E-021
 -0.106875000000000         9.118157454446220E-022
  0.106875000000000        -3.376899038538628E-020
  0.320625000000000        -1.666591704607249E-019
  0.534375000000000        -5.480148930941319E-019
  0.748125000000000        -1.462973529980395E-018
  0.961875000000000        -3.389601644926543E-018
   1.17562500000000        -7.052663308584342E-018
   1.38937500000000        -1.345963629074028E-017
   1.60312500000000        -2.391441747687087E-017
   1.81687500000000        -4.000030948925157E-017
   2.03062500000000        -6.351749093124740E-017
   2.24437500000000        -9.639032048363190E-017
   2.45812500000000        -1.405418506416772E-016
   2.67187500000000        -1.977377592371214E-016
   2.88562500000000        -2.694294938329585E-016
   3.09937500000000        -3.566019993729605E-016
   3.31312500000000        -4.596652157263064E-016
   3.52687500000000        -5.784053916607114E-016
   3.74062500000000        -7.119719426671482E-016
   3.95437500000000        -8.589627175907914E-016
   4.16812500000000        -1.017600801991995E-015
   4.38187500000000        -1.185954161003972E-015
   4.59562500000000        -1.362173379795303E-015
   4.80937500000000        -1.544770465115165E-015
   5.02312500000000        -1.732853275913699E-015
   5.23687500000000        -1.926312683499760E-015
   5.45062500000000        -2.125920245239695E-015
   5.66437500000000        -2.333296268039359E-015
   5.87812500000000        -2.550778228329981E-015
   6.09187500000000        -2.781178854847479E-015
   6.30562500000000        -3.027443081227946E-015
   6.51937500000000        -3.292285733568326E-015
   6.73312500000000        -3.577810648800788E-015
   6.94687500000000        -3.885163750876219E-015
   7.16062500000000        -4.214300062610018E-015
   7.37437500000000        -4.563875500332863E-015
   7.58812500000000        -4.931296693473303E-015
   7.80187500000000        -5.312895426395194E-015
   8.01562500000000        -5.704259140115562E-015
   8.22937500000000        -6.100633243892038E-015
   8.44312500000000        -6.497389199219645E-015
   8.65687500000000        -6.890443506400981E-015
   8.87062500000000        -7.276592311744793E-015
   9.08437500000000        -7.653709711743478E-015
   9.29812500000000        -8.020783107352829E-015
   9.51187500000000        -8.377763324712242E-015
   9.72562500000000        -8.725245908110872E-015
   9.93937500000000        -9.064060885728316E-015
   10.1531250000000        -9.394789771870246E-015
   10.3668750000000        -9.717350110196673E-015
   10.5806250000000        -1.003066810545802E-014
   10.7943750000000        -1.033253950163059E-014
   11.0081250000000        -1.061970424898781E-014
   11.2218750000000        -1.088809928708857E-014
   11.4356250000000        -1.113331818755948E-014
   11.6493750000000        -1.135117632727589E-014
   11.8631250000000        -1.153829164334166E-014
   12.0768750000000        -1.169260182066649E-014
   12.2906250000000        -1.181375051903218E-014
   12.5043750000000        -1.190322295227882E-014
   12.7181250000000        -1.196426263167280E-014
   12.9318750000000        -1.200153102147585E-014
   13.1456250000000        -1.202055749962308E-014
   13.3593750000000        -1.202712075261021E-014
   13.5731250000000        -1.202657614319431E-014
   13.7868750000000        -1.202329544909629E-014
   14.0006250000000        -1.202028888648590E-014
   14.2143750000000        -1.201905296321984E-014
   14.4281250000000        -1.201966915795258E-014
   14.6418750000000        -1.202114886595684E-014
   14.8556250000000        -1.202193441531464E-014
   15.0693750000000        -1.202046325732428E-014
   15.2831250000000        -1.201573033669230E-014
   15.4968750000000        -1.200771521946476E-014
   15.7106250000000        -1.199762903589671E-014
   15.9243750000000        -1.198791569747165E-014
   16.1381250000000        -1.198201151640205E-014
   16.3518750000000        -1.198393673154490E-014
   16.5656250000000        -1.199780050093179E-014
   16.7793750000000        -1.202723931050914E-014
   16.9931250000000        -1.207491696911323E-014
   17.2068750000000        -1.214221572205596E-014
   17.4206250000000        -1.222911850534561E-014
   17.6343750000000        -1.233431057360822E-014
   17.8481250000000        -1.245547515560931E-014
   18.0618750000000        -1.258977362785795E-014
   18.2756250000000        -1.273439794738558E-014
   18.4893750000000        -1.288710458079832E-014
   18.7031250000000        -1.304666477918311E-014
   18.9168750000000        -1.321316422052355E-014
   19.1306250000000        -1.338811040536285E-014
   19.3443750000000        -1.357429669396559E-014
   19.5581250000000        -1.377550012929048E-014
   19.7718750000000        -1.399604323043502E-014
   19.9856250000000        -1.424022243036216E-014
   20.1993750000000        -1.451175202781950E-014
   20.4131250000000        -1.481326812508273E-014
   20.6268750000000        -1.514593927027610E-014
   20.8406250000000        -1.550925414037250E-014
   21.0543750000000        -1.590100462344578E-014
   21.2681250000000        -1.631743562756729E-014
   21.4818750000000        -1.675358419021901E-014
   21.6956250000000        -1.720373129738757E-014
   21.9093750000000        -1.766192453863751E-014
   22.1231250000000        -1.812253030666915E-014
   22.3368750000000        -1.858069556979748E-014
   22.5506250000000        -1.903273422932217E-014
   22.7643750000000        -1.947633571796968E-014
   22.9781250000000        -1.991064676600745E-014
   23.1918750000000        -2.033618072450323E-014
   23.4056250000000        -2.075457614461201E-014
   23.6193750000000        -2.116829073368922E-014
   23.8331250000000        -2.158022094393662E-014
   24.0468750000000        -2.199334499322003E-014
   24.2606250000000        -2.241042300515273E-014
   24.4743750000000        -2.283379730613463E-014
   24.6881250000000        -2.326528766916485E-014
   24.9018750000000        -2.370617663131119E-014
   25.1156250000000        -2.415729589996876E-014
   25.3293750000000        -2.461911665900280E-014
   25.5431250000000        -2.509180523906254E-014
   25.7568750000000        -2.557524415129118E-014
   25.9706250000000        -2.606895229661238E-014
   26.1843750000000        -2.657191318187535E-014
   26.3981250000000        -2.708233267515870E-014
   26.6118750000000        -2.759737722483468E-014
   26.8256250000000        -2.811296480397246E-014
   27.0393750000000        -2.862366656986036E-014
   27.2531250000000        -2.912278897722313E-014
   27.4668750000000        -2.960266636105517E-014
   27.6806250000000        -3.005517112150028E-014
   27.8943750000000        -3.047242961053412E-014
   28.1081250000000        -3.084759655537492E-014
   28.3218750000000        -3.117567047694420E-014
   28.5356250000000        -3.145416728176603E-014
   28.7493750000000        -3.168357180660378E-014
   28.9631250000000        -3.186750897675214E-014
   29.1768750000000        -3.201253671264091E-014
   29.3906250000000        -3.212760785941239E-014
   29.6043750000000        -3.222325377528996E-014
   29.8181250000000        -3.231059888480969E-014
   30.0318750000000        -3.240034150530796E-014
   30.2456250000000        -3.250185116720823E-014
   30.4593750000000        -3.262243611872614E-014
   30.6731250000000        -3.276692476084447E-014
   30.8868750000000        -3.293760435938955E-014
   31.1006250000000        -3.313444283253480E-014
   31.3143750000000        -3.335557497526062E-014
   31.5281250000000        -3.359794849209716E-014
   31.7418750000000        -3.385795522160229E-014
   31.9556250000000        -3.413202443535624E-014
   32.1693750000000        -3.441704676968391E-014
   32.3831250000000        -3.471059784502351E-014
   32.5968750000000        -3.501095745776220E-014
   32.8106250000000        -3.531696628134050E-014
   33.0243750000000        -3.562781438298455E-014
   33.2381250000000        -3.594281744476155E-014
   33.4518750000000        -3.626126212999872E-014
   33.6656250000000        -3.658236094389326E-014
   33.8793750000000        -3.690538370598723E-014
   34.0931250000000        -3.722989837096403E-014
   34.3068750000000        -3.755604684558352E-014
   34.5206250000000        -3.788485298494889E-014
   34.7343750000000        -3.821843798024827E-014
   34.9481250000000        -3.856007435190920E-014
   35.1618750000000        -3.891405249241862E-014
   35.3756250000000        -3.928534597294984E-014
   35.5893750000000        -3.967914060247065E-014
   35.8031250000000        -4.010024668479006E-014
   36.0168750000000        -4.055252518050112E-014
   36.2306250000000        -4.103842096781080E-014
   36.4443750000000        -4.155864693043119E-014
   36.6581250000000        -4.211213004377889E-014
   36.8718750000000        -4.269617028897667E-014
   37.0856250000000        -4.330683923362584E-014
   37.2993750000000        -4.393955946409835E-014
   37.5131250000000        -4.458973145124339E-014
   37.7268750000000        -4.525338467086731E-014
   37.9406250000000        -4.592766681424499E-014
   38.1543750000000        -4.661117928731682E-014
   38.3681250000000        -4.730405534769039E-014
   38.5818750000000        -4.800776815317518E-014
   38.7956250000000        -4.872477906469938E-014
   39.0093750000000        -4.945795951646019E-014
   39.2231250000000        -5.020994198405951E-014
   39.4368750000000        -5.098247350942862E-014
   39.6506250000000        -5.177584850005376E-014
   39.8643750000000        -5.258851915100257E-014
   40.0781250000000        -5.341691318240858E-014
   40.2918750000000        -5.425549905928382E-014
   40.5056250000000        -5.509707069615913E-014
   40.7193750000000        -5.593326466749602E-014
   40.9331250000000        -5.675525698548737E-014
   41.1468750000000        -5.755451578278831E-014
   41.3606250000000        -5.832357548441367E-014
   41.5743750000000        -5.905676781506060E-014
   41.7881250000000        -5.975078638899546E-014
   42.0018750000000        -6.040506169931021E-014
   42.2156250000000        -6.102188732567295E-014
   42.4293750000000        -6.160626711181993E-014
   42.6431250000000        -6.216552219269780E-014
   42.8568750000000        -6.270868146222831E-014
   43.0706250000000        -6.324569178059662E-014
   43.2843750000000        -6.378657917419085E-014
   43.4981250000000        -6.434060426940337E-014
   43.7118750000000        -6.491547507660764E-014
   43.9256250000000        -6.551676179301253E-014
   44.1393750000000        -6.614752724904980E-014
   44.3531250000000        -6.680819668102627E-014
   44.5668750000000        -6.749666976738173E-014
   44.7806250000000        -6.820864325373260E-014
   44.9943750000000        -6.893809973871570E-014
   45.2081250000000        -6.967788457836001E-014
   45.4218750000000        -7.042030731879025E-014
   45.6356250000000        -7.115769744537815E-014
   45.8493750000000        -7.188285246115089E-014
   46.0631250000000        -7.258939065574298E-014
   46.2768750000000        -7.327199468174933E-014
   46.4906250000000        -7.392652791970350E-014
   46.7043750000000        -7.455011474511553E-014
   46.9181250000000        -7.514119209127426E-014
   47.1318750000000        -7.569955622230998E-014
   47.3456250000000        -7.622645863154412E-014
   47.5593750000000        -7.672472184190811E-014
   47.7731250000000        -7.719883963310908E-014
   47.9868750000000        -7.765503374271960E-014
   48.2006250000000        -7.810122905947160E-014
   48.4143750000000        -7.854689779127240E-014
   48.6281250000000        -7.900273314922682E-014
   48.8418750000000        -7.948011946192974E-014
   49.0556250000000        -7.999046182367615E-014
   49.2693750000000        -8.054442630031124E-014
   49.4831250000000        -8.115113710814468E-014
   49.6968750000000        -8.181741875122961E-014
   49.9106250000000        -8.254723558081024E-014
   50.1243750000000        -8.334137359944611E-014
   50.3381250000000        -8.419741212782777E-014
   50.5518750000000        -8.511000178374368E-014
   50.7656250000000        -8.607145061714617E-014
   50.9793750000000        -8.707253859003508E-014
   51.1931250000000        -8.810346298157263E-014
   51.4068750000000        -8.915478345358526E-014
   51.6206250000000        -9.021823702898702E-014
   51.8343750000000        -9.128736948114326E-014
   52.0481250000000        -9.235785322282183E-014
   52.2618750000000        -9.342750743671870E-014
   52.4756250000000        -9.449602852803245E-014
   52.6893750000000        -9.556448041107080E-014
   52.9031250000000        -9.663468012738135E-014
   53.1168750000000        -9.770858277500962E-014
   53.3306250000000        -9.878777577335592E-014
   53.5443750000000        -9.987315781453295E-014
   53.7581250000000        -1.009648900230748E-013
   53.9718750000000        -1.020625976055954E-013
   54.1856250000000        -1.031657423839606E-013
   54.3993750000000        -1.042741246563142E-013
   54.6131250000000        -1.053883425383888E-013
   54.8268750000000        -1.065101028545539E-013
   55.0406250000000        -1.076422842135753E-013
   55.2543750000000        -1.087886753324931E-013
   55.4681250000000        -1.099533740467127E-013
   55.6818750000000        -1.111399351326442E-013
   55.8956250000000        -1.123503841116366E-013
   56.1093750000000        -1.135842613367416E-013
   56.3231250000000        -1.148379158803948E-013
   56.5368750000000        -1.161042025543584E-013
   56.7506250000000        -1.173727408817861E-013
   56.9643750000000        -1.186307695117934E-013
   57.1781250000000        -1.198645952522079E-013
   57.3918750000000        -1.210614602921893E-013
   57.6056250000000        -1.222116325520695E-013
   57.8193750000000        -1.233104051239911E-013
   58.0331250000000        -1.243596526500656E-013
   58.2468750000000        -1.253686890381809E-013
   58.4606250000000        -1.263541762482641E-013
   58.6743750000000        -1.273389328801697E-013
   58.8881250000000        -1.283496341227677E-013
   59.1018750000000        -1.294136298557034E-013
   59.3156250000000        -1.305551759911708E-013
   59.5293750000000        -1.317914673329246E-013
   59.7431250000000        -1.331289849312951E-013
   59.9568750000000        -1.345607621146192E-013
   60.1706250000000        -1.360650005627510E-013
   60.3843750000000        -1.376054001390741E-013
   60.5981250000000        -1.391334363247118E-013
   60.8118750000000        -1.405926232362012E-013
   61.0256250000000        -1.419244797977791E-013
   61.2393750000000        -1.430757066727197E-013
   61.4531250000000        -1.440059711673725E-013
   61.6668750000000        -1.446953825085267E-013
   61.8806250000000        -1.451507012201896E-013
   62.0943750000000        -1.454094062577576E-013
   62.3081250000000        -1.455406865179188E-013
   62.5218750000000        -1.456427544252978E-013
   62.7356250000000        -1.458362230097609E-013
   62.9493750000000        -1.462535841934368E-013
   63.1631250000000        -1.470254566490412E-013
   63.3768750000000        -1.482646043583336E-013
   63.5906250000000        -1.500492581902310E-013
   63.8043750000000        -1.524076845222744E-013
   64.0181250000000        -1.553060273723604E-013
   64.2318750000000        -1.586414619683579E-013
   64.4456250000000        -1.622424450357043E-013
   64.6593750000000        -1.658772927892823E-013
   64.8731250000000        -1.692714709032211E-013
   65.0868750000000        -1.721330044299637E-013
   65.3006250000000        -1.741843700126878E-013
   65.5143750000000        -1.751980823615770E-013
   65.7281250000000        -1.750323116238761E-013
   65.9418750000000        -1.736622871158375E-013
   66.1556250000000        -1.712029694409676E-013
   66.3693750000000        -1.679189199990776E-013
   66.5831250000000        -1.642181738163633E-013
   66.7968750000000        -1.606283010123265E-013
   67.0106250000000        -1.577547976134011E-013
   67.2243750000000        -1.562240124213765E-013
   67.4381250000000        -1.566149461209329E-013
   67.6518750000000        -1.593862431679064E-013
   67.8656250000000        -1.648060407978792E-013
   68.0793750000000        -1.728930993710813E-013
   68.2931250000000        -1.833774147011727E-013
   68.5068750000000        -1.956872275538434E-013
   68.7206250000000        -2.089673946474993E-013
   68.9343750000000        -2.221310306548591E-013
   69.1481250000000        -2.339429179476721E-013
   69.3618750000000        -2.431295630457116E-013
   69.5756250000000        -2.485073018272711E-013
   69.7893750000000        -2.491170898162062E-013
   70.0031250000000        -2.443526978269913E-013
   70.2168750000000        -2.340684636674202E-013
   70.4306250000000        -2.186535540881840E-013
   70.6443750000000        -1.990618873374404E-013
   70.8581250000000        -1.767902946476223E-013
   71.0718750000000        -1.538020016131665E-013
   71.2856250000000        -1.323974274142665E-013
   71.4993750000000        -1.150393979900398E-013
   71.7131250000000        -1.041445859938747E-013
   71.9268750000000        -1.018567769706846E-013
   72.1406250000000        -1.098201905591418E-013
   72.3543750000000        -1.289722461115056E-013
   72.5681250000000        -1.593746999381741E-013
   72.7818750000000        -2.001001536215355E-013
   72.9956250000000        -2.491877858992359E-013
   73.2093750000000        -3.036778006583084E-013
   73.4231250000000        -3.597291301742556E-013
   73.6368750000000        -4.128196214911298E-013
   73.8506250000000        -4.580225059695516E-013
   74.0643750000000        -4.903478338477324E-013
   74.2781250000000        -5.051325849447081E-013
   74.4918750000000        -4.984587723513513E-013
   74.7056250000000        -4.675748681441300E-013
   74.9193750000000        -4.112925067088589E-013
   75.1331250000000        -3.303276890148558E-013
   75.3468750000000        -2.275538573159342E-013
   75.5606250000000        -1.081338667300009E-013
   75.7743750000000         2.050076237358220E-014
   75.9881250000000         1.488510009284708E-013
   76.2018750000000         2.657524629598095E-013
   76.4156250000000         3.589883799089408E-013
   76.6293750000000         4.161084796726826E-013
   76.8431250000000         4.254303047240101E-013
   77.0568750000000         3.771779031614444E-013
   77.2706250000000         2.646894079495993E-013
   77.4843750000000         8.560208763211156E-014
   77.6981250000000        -1.570965211159981E-013
   77.9118750000000        -4.542766533421198E-013
   78.1256250000000        -7.902633143614096E-013
   78.3393750000000        -1.142944131519455E-012
   78.5531250000000        -1.484487748335132E-012
   78.7668750000000        -1.782734418582928E-012
   78.9806250000000        -2.003267370985421E-012
   79.1943750000000        -2.112107768510421E-012
   79.4081250000000        -2.078901877139090E-012
   79.6218750000000        -1.880392782793232E-012
   79.8356250000000        -1.503898531899715E-012
   80.0493750000000        -9.504627048832429E-013
   80.2631250000000        -2.373107611049560E-013
   80.4768750000000         6.007554513544244E-013
   80.6906250000000         1.511356268196266E-012
   80.9043750000000         2.426180330095110E-012
   81.1181250000000         3.264416091197444E-012
   81.3318750000000         3.937955513691617E-012
   81.5456250000000         4.358181078164582E-012
   81.7593750000000         4.443960730645369E-012
   81.9731250000000         4.130295739779903E-012
   82.1868750000000         3.376912518307936E-012
   82.4006250000000         2.175981263611113E-012
   82.6143750000000         5.580994973958349E-013
   82.8281250000000        -1.404289057109913E-012
   83.0418750000000        -3.596752098562871E-012
   83.2556250000000        -5.866511456881940E-012
   83.4693750000000        -8.030098377567552E-012
   83.6831250000000        -9.884907071583573E-012
   83.8968750000000        -1.122415475296809E-011
   84.1106250000000        -1.185437455381144E-011
   84.3243750000000        -1.161421794299232E-011
   84.5381250000000        -1.039306230225719E-011
   84.7518750000000        -8.147741871904016E-012
   84.9656250000000        -4.915675594017120E-012
   85.1793750000000        -8.227722662500831E-013
   85.3931250000000         3.915240596264002E-012
   85.6068750000000         8.998999688704967E-012
   85.8206250000000         1.405958776308701E-011
   86.0343750000000         1.868025868969774E-011
   86.2481250000000         2.242486070241634E-011
   86.4618750000000         2.487133348926928E-011
   86.6756250000000         2.564804656334201E-011
   86.8893750000000         2.447026864392084E-011
   87.1031250000000         2.117376436123688E-011
   87.3168750000000         1.574244682491150E-011
   87.5306250000000         8.327197718932550E-012
   87.7443750000000        -7.465933512848218E-013
   87.9581250000000        -1.098453765667742E-011
   88.1718750000000        -2.174268725114201E-011
   88.3856250000000        -3.226075753451861E-011
   88.5993750000000        -4.170787869891100E-011
   88.8131250000000        -4.923852677780888E-011
   89.0268750000000        -5.405528686009797E-011
   89.2406250000000        -5.547428602578118E-011
   89.4543750000000        -5.298857744222028E-011
   89.6681250000000        -4.632451957677221E-011
   89.8818750000000        -3.548631392461596E-011
   90.0956250000000        -2.078435409443237E-011
   90.3093750000000        -2.843884489430688E-012
   90.5231250000000         1.740837318837787E-011
   90.7368750000000         3.878055883734666E-011
   90.9506250000000         5.987434148628966E-011
   91.1643750000000         7.916364913499198E-011
   91.3781250000000         9.508961609869448E-011
   91.5918750000000         1.061664873219543E-010
   91.8056250000000         1.110920709755050E-010
   92.0193750000000         1.088555414211127E-010
   92.2331250000000         9.883503584548806E-011
   92.4468750000000         8.087760632490499E-011
   92.6606250000000         5.535470310736821E-011
   92.8743750000000         2.318746273680227E-011
   93.0881250000000        -1.416238531292149E-011
   93.3018750000000        -5.473826797090615E-011
   93.5156250000000        -9.617126051111836E-011
   93.7293750000000        -1.357970605960835E-010
   93.9431250000000        -1.708028097688608E-010
   94.1568750000000        -1.983968676221585E-010
   94.3706250000000        -2.159926410616186E-010
   94.5843750000000        -2.213959630558649E-010
   94.7981250000000        -2.129844262496150E-010
   95.0118750000000        -1.898666109302125E-010
   95.2256250000000        -1.520093799108036E-010
   95.4393750000000        -1.003223870926128E-010
   95.6531250000000        -3.669066515968596E-011
   95.8668750000000         3.605141893517691E-011
   96.0806250000000         1.142085083268446E-010
   96.2943750000000         1.933750325281009E-010
   96.5081250000000         2.686446896835168E-010
   96.7218750000000         3.348709330531492E-010
   96.9356250000000         3.869668987485586E-010
   97.1493750000000         4.202297118900238E-010
   97.3631250000000         4.306712195994052E-010
   97.5768750000000         4.153351577998634E-010
   97.7906250000000         3.725797711889403E-010
   98.0043750000000         3.023051330058252E-010
   98.2181250000000         2.061059532062328E-010
   98.4318750000000         8.733354687720931E-011
   98.6456250000000        -4.894519720881307E-011
   98.8593750000000        -1.960986989231654E-010
   99.0731250000000        -3.461920516568569E-010
   99.2868750000000        -4.903526820403695E-010
   99.5006250000000        -6.192270753705733E-010
   99.7143750000000        -7.235085006749366E-010
   99.9281250000000        -7.945094882133739E-010
   100.141875000000        -8.247477366804999E-010
   100.355625000000        -8.085105745767926E-010
   100.569375000000        -7.423614254165131E-010
   100.783125000000        -6.255521945948049E-010
   100.996875000000        -4.603082557010784E-010
   101.210625000000        -2.519577805853827E-010
   101.424375000000        -8.884398598061915E-012
   101.638125000000         2.577086953219209E-010
   101.851875000000         5.342244607648950E-010
   102.065625000000         8.052773151392725E-010
   102.279375000000         1.054455985149336E-009
   102.493125000000         1.265210530254466E-009
   102.706875000000         1.421820009997949E-009
   102.920625000000         1.510389025061555E-009
   103.134375000000         1.519815680744403E-009
   103.348125000000         1.442670937514894E-009
   103.561875000000         1.275930205681201E-009
   103.775625000000         1.021502597249233E-009
   103.989375000000         6.865114385912104E-010
   104.203125000000         2.832912147159345E-010
   104.416875000000        -1.709194258489922E-010
   104.630625000000        -6.545923229356135E-010
   104.844375000000        -1.142817857853489E-009
   105.058125000000        -1.608473871823872E-009
   105.271875000000        -2.023605416558359E-009
   105.485625000000        -2.360949697007983E-009
   105.699375000000        -2.595527903140650E-009
   105.913125000000        -2.706216839209052E-009
   106.126875000000        -2.677209089122279E-009
   106.340625000000        -2.499271405001667E-009
   106.554375000000        -2.170717285967346E-009
   106.768125000000        -1.698021224716130E-009
   106.981875000000        -1.096018417997199E-009
   107.195625000000        -3.876541318266912E-010
   107.409375000000         3.967296243409122E-010
   107.623125000000         1.220557160675994E-009
   107.836875000000         2.042593205706139E-009
   108.050625000000         2.818864607022037E-009
   108.264375000000         3.504843937203708E-009
   108.478125000000         4.057790866289051E-009
   108.691875000000         4.439133710442099E-009
   108.905625000000         4.616766016606198E-009
   109.119375000000         4.567131989796904E-009
   109.333125000000         4.276980253930018E-009
   109.546875000000         3.744677727591554E-009
   109.760625000000         2.980993796015256E-009
   109.974375000000         2.009288634960534E-009
   110.188125000000         8.650673680339513E-010
   110.401875000000        -4.051076319065745E-010
   110.615625000000        -1.745322051246716E-009
   110.829375000000        -3.092576629556698E-009
   111.043125000000        -4.379530041320731E-009
   111.256875000000        -5.537605254998157E-009
   111.470625000000        -6.500324901913197E-009
   111.684375000000        -7.206724766689294E-009
   111.898125000000        -7.604684552130249E-009
   112.111875000000        -7.654012122429273E-009
   112.325625000000        -7.329121748686626E-009
   112.539375000000        -6.621158444796774E-009
   112.753125000000        -5.539438992588918E-009
   112.966875000000        -4.112105162612905E-009
   113.180625000000        -2.385915161051550E-009
   113.394375000000        -4.251344866774795E-010
   113.608125000000         1.690474006997336E-009
   113.821875000000         3.868520315420256E-009
   114.035625000000         6.007635844792376E-009
   114.249375000000         8.001777997836828E-009
   114.463125000000         9.745030665178852E-009
   114.676875000000         1.113670710783976E-008
   114.890625000000         1.208653446267449E-008
   115.104375000000         1.251967969280775E-008
   115.318125000000         1.238136681037409E-008
   115.531875000000         1.164083596885917E-008
   115.745625000000         1.029440758323954E-008
   115.959375000000         8.367439583394969E-009
   116.173125000000         5.915003299350243E-009
   116.386875000000         3.021152747783652E-009
   116.600625000000        -2.032780264319720E-010
   116.814375000000        -3.624346397459848E-009
   117.028125000000        -7.090063834090651E-009
   117.241875000000        -1.043669531326156E-008
   117.455625000000        -1.349606544327106E-008
   117.669375000000        -1.610357141045185E-008
   117.883125000000        -1.810654311619507E-008
   118.096875000000        -1.937254554727158E-008
   118.310625000000        -1.979719142092166E-008
   118.524375000000        -1.931102665649344E-008
   118.738125000000        -1.788506944327134E-008
   118.951875000000        -1.553462655558419E-008
   119.165625000000        -1.232107764258819E-008
   119.379375000000        -8.351407493191328E-009
   119.593125000000        -3.775374212281942E-009
   119.806875000000         1.219677130590850E-009
   120.020625000000         6.416216709346718E-009
   120.234375000000         1.157587986806857E-008
   120.448125000000         1.645037445487221E-008
   120.661875000000         2.079344808766863E-008
   120.875625000000         2.437333299899534E-008
   121.089375000000         2.698502985308436E-008
   121.303125000000         2.846176922508644E-008
   121.516875000000         2.868500339369492E-008
   121.730625000000         2.759233272510789E-008
   121.944375000000         2.518285893232224E-008
   122.158125000000         2.151957827792011E-008
   122.371875000000         1.672857556330472E-008
   122.585625000000         1.099494681892616E-008
   122.799375000000         4.555555798001945E-009
   123.013125000000        -2.311093451969280E-009
   123.226875000000        -9.297418977584540E-009
   123.440625000000        -1.608116324538381E-008
   123.654375000000        -2.234092411608901E-008
   123.868125000000        -2.777202428327643E-008