  -1.60312500000000         2.974218597748736E-020
  -1.38937500000000         3.432128463906460E-019
  -1.17562500000000         2.259484240568996E-018
 -0.961875000000000         1.079774778424105E-017
 -0.748125000000000         4.122345302598646E-017
 -0.534375000000000         1.296619092280582E-016
 -0.320625000000000         3.356069107309134E-016
 -0.106875000000000         6.946315540938745E-016
  0.106875000000000         1.038879269433284E-015
  0.320625000000000         5.854629111890139E-016
  0.534375000000000        -2.794973399092577E-015
  0.748125000000000        -1.361821566489785E-014
  0.961875000000000        -4.004533773600944E-014
   1.17562500000000        -9.523741245565920E-014
   1.38937500000000        -1.986365920656477E-013
   1.60312500000000        -3.769921734243773E-013
   1.81687500000000        -6.650513769353173E-013
   2.03062500000000        -1.105714888066689E-012
   2.24437500000000        -1.749488586962606E-012
   2.45812500000000        -2.653186732789981E-012
   2.67187500000000        -3.877771059778238E-012
   2.88562500000000        -5.485695793908907E-012
   3.09937500000000        -7.537478112437493E-012
   3.31312500000000        -1.008816715168625E-011
   3.52687500000000        -1.318412956342933E-011
   3.74062500000000        -1.686017411360101E-011
   3.95437500000000        -2.113797008724289E-011
   4.16812500000000        -2.602578885631382E-011
   4.38187500000000        -3.152006154487165E-011
   4.59562500000000        -3.760829011495117E-011
   4.80937500000000        -4.427343608918409E-011
   5.02312500000000        -5.149941820459576E-011
   5.23687500000000        -5.927636263993622E-011
   5.45062500000000        -6.760526345149239E-011
   5.66437500000000        -7.650057303835535E-011
   5.87812500000000        -8.599055384340654E-011
   6.09187500000000        -9.611468535728987E-011
   6.30562500000000        -1.069172506501535E-010
   6.51937500000000        -1.184387802654995E-010
   6.73312500000000        -1.307055664983686E-010
   6.94687500000000        -1.437186011666344E-010
   7.16062500000000        -1.574438816693969E-010
   7.37437500000000        -1.718059453776903E-010
   7.58812500000000        -1.866860257585652E-010
   7.80187500000000        -2.019251128311420E-010
   8.01562500000000        -2.173331737045667E-010
   8.22937500000000        -2.327032059297059E-010
   8.44312500000000        -2.478285747226703E-010
   8.65687500000000        -2.625212199731250E-010
   8.87062500000000        -2.766284702199238E-010
   9.08437500000000        -2.900459314200507E-010
   9.29812500000000        -3.027236644700109E-010
   9.51187500000000        -3.146648571717356E-010
   9.72562500000000        -3.259171131869599E-010
   9.93937500000000        -3.365575029046801E-010
   10.1531250000000        -3.466736396387545E-010
   10.3668750000000        -3.563437562296467E-010
   10.5806250000000        -3.656192740391441E-010
   10.7943750000000        -3.745136288143703E-010
   11.0081250000000        -3.829982291998029E-010
   11.2218750000000        -3.910072499160007E-010
   11.4356250000000        -3.984507929318221E-010
   11.6493750000000        -4.052334273720078E-010
   11.8631250000000        -4.112753017506249E-010
   12.0768750000000        -4.165317959427730E-010
   12.2906250000000        -4.210080639768070E-010
   12.5043750000000        -4.247650460197915E-010
   12.7181250000000        -4.279159218688507E-010
   12.9318750000000        -4.306129092560739E-010
   13.1456250000000        -4.330260420281328E-010
   13.3593750000000        -4.353179536149070E-010
   13.5731250000000        -4.376184556448568E-010
   13.7868750000000        -4.400037022639643E-010
   14.0006250000000        -4.424836328217606E-010
   14.2143750000000        -4.450001102255296E-010
   14.4281250000000        -4.474366690859336E-010
   14.6418750000000        -4.496381394445649E-010
   14.8556250000000        -4.514373601155904E-010
   15.0693750000000        -4.526845393132039E-010
   15.2831250000000        -4.532746316578107E-010
   15.4968750000000        -4.531683883786690E-010
   15.7106250000000        -4.524032205839782E-010
   15.9243750000000        -4.510927573685565E-010
   16.1381250000000        -4.494154952790519E-010
   16.3518750000000        -4.475941316931257E-010
   16.5656250000000        -4.458698298495354E-010
   16.7793750000000        -4.444752428434046E-010
   16.9931250000000        -4.436107502432895E-010
   17.2068750000000        -4.434277835910333E-010
   17.4206250000000        -4.440211314928411E-010
   17.6343750000000        -4.454310128960223E-010
   17.8481250000000        -4.476534689499958E-010
   18.0618750000000        -4.506570158724979E-010
   18.2756250000000        -4.544017739178617E-010
   18.4893750000000        -4.588577218398479E-010
   18.7031250000000        -4.640183178856009E-010
   18.9168750000000        -4.699073705057654E-010
   19.1306250000000        -4.765788629289265E-010
   19.3443750000000        -4.841087061473743E-010
   19.5581250000000        -4.925809614374124E-010
   19.7718750000000        -5.020710494356596E-010
   19.9856250000000        -5.126284438423705E-010
   20.1993750000000        -5.242620125865823E-010
   20.4131250000000        -5.369302340331978E-010
   20.6268750000000        -5.505379296147839E-010
   20.8406250000000        -5.649395321034715E-010
   21.0543750000000        -5.799489774855481E-010
   21.2681250000000        -5.953546526502214E-010
   21.4818750000000        -6.109369800150304E-010
   21.6956250000000        -6.264868093052152E-010
   21.9093750000000        -6.418226021067473E-010
   22.1231250000000        -6.568041630617519E-010
   22.3368750000000        -6.713415398721975E-010
   22.5506250000000        -6.853990585537228E-010
   22.7643750000000        -6.989937207483967E-010
   22.9781250000000        -7.121887849453063E-010
   23.1918750000000        -7.250837654387602E-010
   23.4056250000000        -7.378017837885224E-010
   23.6193750000000        -7.504764733236397E-010
   23.8331250000000        -7.632394755369892E-010
   24.0468750000000        -7.762097270757951E-010
   24.2606250000000        -7.894857569646517E-010
   24.4743750000000        -8.031416667833669E-010
   24.6881250000000        -8.172262916630690E-010
   24.9018750000000        -8.317647309370793E-010
   25.1156250000000        -8.467620333309625E-010
   25.3293750000000        -8.622067753217532E-010
   25.5431250000000        -8.780737105343315E-010
   25.7568750000000        -8.943248096036801E-010
   25.9706250000000        -9.109069260420651E-010
   26.1843750000000        -9.277471087628264E-010
   26.3981250000000        -9.447466239903504E-010
   26.6118750000000        -9.617745091682791E-010
   26.8256250000000        -9.786627396103634E-010
   27.0393750000000        -9.952052834493576E-010
   27.2531250000000        -1.011162851627820E-009
   27.4668750000000        -1.026273693940976E-009
   27.6806250000000        -1.040270735410089E-009
   27.8943750000000        -1.052904309143752E-009
   28.1081250000000        -1.063967296848089E-009
   28.3218750000000        -1.073319691656021E-009
   28.5356250000000        -1.080909060441703E-009
   28.7493750000000        -1.086783807705431E-009
   28.9631250000000        -1.091096434578094E-009
   29.1768750000000        -1.094095209744602E-009
   29.3906250000000        -1.096105185712320E-009
   29.6043750000000        -1.097500108933668E-009
   29.8181250000000        -1.098668912035936E-009
   30.0318750000000        -1.099981031780527E-009
   30.2456250000000        -1.101754819491141E-009
   30.4593750000000        -1.104233393593961E-009
   30.6731250000000        -1.107570628856515E-009
   30.8868750000000        -1.111828597341444E-009
   31.1006250000000        -1.116986194662370E-009
   31.3143750000000        -1.122956497561740E-009
   31.5281250000000        -1.129609900809450E-009
   31.7418750000000        -1.136798820377553E-009
   31.9556250000000        -1.144380000323781E-009
   32.1693750000000        -1.152231638475177E-009
   32.3831250000000        -1.160263318743913E-009
   32.5968750000000        -1.168418060748734E-009
   32.8106250000000        -1.176667931912146E-009
   33.0243750000000        -1.185005312058660E-009
   33.2381250000000        -1.193432553913867E-009
   33.4518750000000        -1.201953049788027E-009
   33.6656250000000        -1.210565826367008E-009
   33.8793750000000        -1.219265281376222E-009
   34.0931250000000        -1.228045886745505E-009
   34.3068750000000        -1.236910846091577E-009
   34.5206250000000        -1.245882722313741E-009
   34.7343750000000        -1.255013418222916E-009
   34.9481250000000        -1.264390897330614E-009
   35.1618750000000        -1.274140623053791E-009
   35.3756250000000        -1.284420891975237E-009
   35.5893750000000        -1.295411614839363E-009
   35.8031250000000        -1.307297864833602E-009
   36.0168750000000        -1.320250887860276E-009
   36.2306250000000        -1.334408340719114E-009
   36.4443750000000        -1.349857306682893E-009
   36.6581250000000        -1.366622409986894E-009
   36.8718750000000        -1.384660711910245E-009
   37.0856250000000        -1.403864392823178E-009
   37.2993750000000        -1.424070929717450E-009
   37.5131250000000        -1.445079400752016E-009
   37.7268750000000        -1.466670853434486E-009
   37.9406250000000        -1.488630450268633E-009
   38.1543750000000        -1.510768074454508E-009
   38.3681250000000        -1.532935142169664E-009
   38.5818750000000        -1.555035514803341E-009
   38.7956250000000        -1.577029507079163E-009
   39.0093750000000        -1.598930208995579E-009
   39.2231250000000        -1.620792854329212E-009
   39.4368750000000        -1.642698479154815E-009
   39.6506250000000        -1.664734201767010E-009
   39.8643750000000        -1.686973160760396E-009
   40.0781250000000        -1.709455830293631E-009
   40.2918750000000        -1.732175952565681E-009
   40.5056250000000        -1.755073296418260E-009
   40.7193750000000        -1.778034131452268E-009
   40.9331250000000        -1.800899957716509E-009
   41.1468750000000        -1.823483546632867E-009
   41.3606250000000        -1.845590294436645E-009
   41.5743750000000        -1.867042375363749E-009
   41.7881250000000        -1.887702019936074E-009
   42.0018750000000        -1.907490790786783E-009
   42.2156250000000        -1.926402001450061E-009
   42.4293750000000        -1.944503711847370E-009
   42.6431250000000        -1.961931968046160E-009
   42.8568750000000        -1.978874762899227E-009
   43.0706250000000        -1.995548669179899E-009
   43.2843750000000        -2.012171453622911E-009
   43.4981250000000        -2.028934455043286E-009
   43.7118750000000        -2.045978806779333E-009
   43.9256250000000        -2.063378958523838E-009
   44.1393750000000        -2.081135661672265E-009
   44.3531250000000        -2.099179567815639E-009
   44.5668750000000        -2.117384549589558E-009
   44.7806250000000        -2.135587971556109E-009
   44.9943750000000        -2.153615107569629E-009
   45.2081250000000        -2.171303606515724E-009
   45.4218750000000        -2.188523861817837E-009
   45.6356250000000        -2.205192458308233E-009
   45.8493750000000        -2.221277106197136E-009
   46.0631250000000        -2.236792975055259E-009
   46.2768750000000        -2.251792102504645E-009
   46.4906250000000        -2.266348415105304E-009
   46.7043750000000        -2.280541862702219E-009
   46.9181250000000        -2.294445583261290E-009
   47.1318750000000        -2.308118541306420E-009
   47.3456250000000        -2.321605383594853E-009
   47.5593750000000        -2.334943612260865E-009
   47.7731250000000        -2.348176420792616E-009
   47.9868750000000        -2.361368316923072E-009
   48.2006250000000        -2.374619874039057E-009
   48.4143750000000        -2.388077958511519E-009
   48.6281250000000        -2.401938355875183E-009
   48.8418750000000        -2.416438872639594E-009
   49.0556250000000        -2.431842637746456E-009
   49.2693750000000        -2.448413667297661E-009
   49.4831250000000        -2.466387910918620E-009
   49.6968750000000        -2.485943809807798E-009
   49.9106250000000        -2.507177457054956E-009
   50.1243750000000        -2.530086442538971E-009
   50.3381250000000        -2.554565491891396E-009
   50.5518750000000        -2.580415075919661E-009
   50.7656250000000        -2.607362199904508E-009
   50.9793750000000        -2.635091103385161E-009
   51.1931250000000        -2.663279155431153E-009
   51.4068750000000        -2.691632990579085E-009
   51.6206250000000        -2.719919699867121E-009
   51.8343750000000        -2.747988512502706E-009
   52.0481250000000        -2.775780349029560E-009
   52.2618750000000        -2.803324087131644E-009
   52.4756250000000        -2.830720811160342E-009
   52.6893750000000        -2.858118995758214E-009
   52.9031250000000        -2.885685133432380E-009
   53.1168750000000        -2.913575177770057E-009
   53.3306250000000        -2.941911419856381E-009
   53.5443750000000        -2.970768220497429E-009
   53.7581250000000        -3.000169163176546E-009
   53.9718750000000        -3.030095309595166E-009
   54.1856250000000        -3.060502088375197E-009
   54.3993750000000        -3.091341253875244E-009
   54.6131250000000        -3.122582902502573E-009
   54.8268750000000        -3.154232354099192E-009
   55.0406250000000        -3.186337900528262E-009
   55.2543750000000        -3.218986754133645E-009
   55.4681250000000        -3.252288405468961E-009
   55.6818750000000        -3.286347919436346E-009
   55.8956250000000        -3.321233090620837E-009
   56.1093750000000        -3.356941250204430E-009
   56.3231250000000        -3.393372339090915E-009
   56.5368750000000        -3.430313824630528E-009
   56.7506250000000        -3.467442392459749E-009
   56.9643750000000        -3.504344600410774E-009
   57.1781250000000        -3.540555213703186E-009
   57.3918750000000        -3.575609684994148E-009
   57.6056250000000        -3.609104744393455E-009
   57.8193750000000        -3.640758185845541E-009
   58.0331250000000        -3.670459225105373E-009
   58.2468750000000        -3.698301684947693E-009
   58.4606250000000        -3.724592836498337E-009
   58.6743750000000        -3.749834491411375E-009
   58.8881250000000        -3.774676699242096E-009
   59.1018750000000        -3.799847699007718E-009
   59.3156250000000        -3.826067179894003E-009
   59.5293750000000        -3.853951921007777E-009
   59.7431250000000        -3.883925889428226E-009
   59.9568750000000        -3.916146796728202E-009
   60.1706250000000        -3.950458440286890E-009
   60.3843750000000        -3.986377962330220E-009
   60.5981250000000        -4.023122704601823E-009
   60.8118750000000        -4.059678229748913E-009
   61.0256250000000        -4.094903360036309E-009
   61.2393750000000        -4.127664560984693E-009
   61.4531250000000        -4.156988531079661E-009
   61.6668750000000        -4.182216423941818E-009
   61.8806250000000        -4.203143064985190E-009
   62.0943750000000        -4.220122236032843E-009
   62.3081250000000        -4.234120024535261E-009
   62.5218750000000        -4.246701912745196E-009
   62.7356250000000        -4.259943505984485E-009
   62.9493750000000        -4.276262213729495E-009
   63.1631250000000        -4.298176406666437E-009
   63.3768750000000        -4.328008269024337E-009
   63.5906250000000        -4.367556680113919E-009
   63.8043750000000        -4.417775770636703E-009
   64.0181250000000        -4.478500673152653E-009
   64.2318750000000        -4.548264264537745E-009
   64.4456250000000        -4.624245496980382E-009
   64.6593750000000        -4.702380570893184E-009
   64.8731250000000        -4.777653198645776E-009
   65.0868750000000        -4.844558890600862E-009
   65.3006250000000        -4.897714948040283E-009
   65.5143750000000        -4.932563520504770E-009
   65.7281250000000        -4.946092891808760E-009
   65.9418750000000        -4.937487193599192E-009
   66.1556250000000        -4.908607848690205E-009
   66.3693750000000        -4.864216677933197E-009
   66.5831250000000        -4.811870156427533E-009
   66.7968750000000        -4.761444300518037E-009
   67.0106250000000        -4.724292480052925E-009
   67.2243750000000        -4.712086784407053E-009
   67.4381250000000        -4.735440475538793E-009
   67.6518750000000        -4.802452260624098E-009
   67.8656250000000        -4.917343187473344E-009
   68.0793750000000        -5.079368407331214E-009
   68.2931250000000        -5.282176601574868E-009
   68.5068750000000        -5.513755807047584E-009
   68.7206250000000        -5.757049555482067E-009
   68.9343750000000        -5.991255040093220E-009
   69.1481250000000        -6.193732335524506E-009
   69.3618750000000        -6.342371195557475E-009
   69.5756250000000        -6.418188783527765E-009
   69.7893750000000        -6.407879173674897E-009
   70.0031250000000        -6.306011568456595E-009
   70.2168750000000        -6.116584893477427E-009
   70.4306250000000        -5.853693323411333E-009
   70.6443750000000        -5.541137531427639E-009
   70.8581250000000        -5.210924289003426E-009
   71.0718750000000        -4.900720002961085E-009
   71.2856250000000        -4.650448190994310E-009
   71.4993750000000        -4.498332667492409E-009
   71.7131250000000        -4.476772199411330E-009
   71.9268750000000        -4.608477157390954E-009
   72.1406250000000        -4.903295904620919E-009
   72.3543750000000        -5.356107024607840E-009
   72.5681250000000        -5.946056470698581E-009
   72.7818750000000        -6.637285787501305E-009
   72.9956250000000        -7.381144813050289E-009
   73.2093750000000        -8.119726113627162E-009
   73.4231250000000        -8.790418628067600E-009
   73.6368750000000        -9.331072315245889E-009
   73.8506250000000        -9.685306323556433E-009
   74.0643750000000        -9.807487787279413E-009
   74.2781250000000        -9.666957348913487E-009
   74.4918750000000        -9.251172012462296E-009
   74.7056250000000        -8.567561171951062E-009
   74.9193750000000        -7.644029735070838E-009
   75.1331250000000        -6.528170388443101E-009
   75.3468750000000        -5.285345033188024E-009
   75.5606250000000        -3.995850506340891E-009
   75.7743750000000        -2.751386361130838E-009
   75.9881250000000        -1.650996252823760E-009
   76.2018750000000        -7.965731924157423E-010
   76.4156250000000        -2.879232965830006E-010
   76.6293750000000        -2.173015546927782E-010
   76.8431250000000        -6.632952184919283E-010
   77.0568750000000        -1.683962943717002E-009
   77.2706250000000        -3.309256900792871E-009
   77.4843750000000        -5.532961571787702E-009
   77.6981250000000        -8.304665586949477E-009
   77.9118750000000        -1.152260318596681E-008
   78.1256250000000        -1.502851203714284E-008
   78.3393750000000        -1.860589221537772E-008
   78.5531250000000        -2.198314725093380E-008
   78.7668750000000        -2.484298424465098E-008
   78.9806250000000        -2.683910184570256E-008
   79.1943750000000        -2.762058260705483E-008
   79.4081250000000        -2.686354946045921E-008
   79.6218750000000        -2.430860288130759E-008
   79.8356250000000        -1.980142305478824E-008
   80.0493750000000        -1.333283262711443E-008
   80.2631250000000        -5.073724319592482E-009
   80.4768750000000         4.600272818341528E-009
   80.6906250000000         1.509954016736743E-008
   80.9043750000000         2.563118988951828E-008
   81.1181250000000         3.523305669271351E-008
   81.3318750000000         4.283234562224389E-008
   81.5456250000000         4.732786076710167E-008
   81.7593750000000         4.769192008953395E-008
   81.9731250000000         4.308514672397846E-008
   82.1868750000000         3.297463877426289E-008
   82.4006250000000         1.724389964906927E-008
   82.6143750000000        -3.718302661311067E-009
   82.8281250000000        -2.896300337581015E-008
   83.0418750000000        -5.697153734786047E-008
   83.2556250000000        -8.570016589462868E-008
   83.4693750000000        -1.126833762526486E-007
   83.6831250000000        -1.351951269597112E-007
   83.8968750000000        -1.504613351096529E-007
   84.1106250000000        -1.559107470503135E-007
   84.3243750000000        -1.494456258624805E-007
   84.5381250000000        -1.297090733691305E-007
   84.7518750000000        -9.632289904570782E-008
   84.9656250000000        -5.006926085816232E-008
   85.1793750000000         7.008829798963710E-009
   85.3931250000000         7.160850834914853E-008
   85.6068750000000         1.392828686844367E-007
   85.8206250000000         2.046757221286846E-007
   86.0343750000000         2.618688272820607E-007
   86.2481250000000         3.048239392798481E-007
   86.4618750000000         3.278913035762866E-007
   86.6756250000000         3.263470134313689E-007
   86.8893750000000         2.969149751334397E-007
   87.1031250000000         2.382259345983711E-007
   87.3168750000000         1.511667205492056E-007
   87.5306250000000         3.907782825089963E-008
   87.7443750000000        -9.223339585149637E-008
   87.9581250000000        -2.346838978262882E-007
   88.1718750000000        -3.783146973374587E-007
   88.3856250000000        -5.118863570944529E-007
   88.5993750000000        -6.236396894942060E-007
   88.8131250000000        -7.021750026829211E-007
   89.0268750000000        -7.373896604866540E-007
   89.2406250000000        -7.214042308271472E-007
   89.4543750000000        -6.494030491321921E-007
   89.6681250000000        -5.203162651547516E-007
   89.8818750000000        -3.372775626136274E-007
   90.0956250000000        -1.078044513978637E-007
   90.3093750000000         1.563344231053777E-007
   90.5231250000000         4.395792961920621E-007
   90.7368750000000         7.233575695993104E-007
   90.9506250000000         9.871474154840207E-007
   91.1643750000000         1.209771106415442E-006
   91.3781250000000         1.370842778177988E-006
   91.5918750000000         1.452280059967405E-006
   91.8056250000000         1.439779339441395E-006
   92.0193750000000         1.324151162272660E-006
   92.2331250000000         1.102415753368262E-006
   92.4468750000000         7.785688024750635E-007
   92.6606250000000         3.639439648990947E-007
   92.8743750000000        -1.228799018014804E-007
   93.0881250000000        -6.566530984140654E-007
   93.3018750000000        -1.206509070607367E-006
   93.5156250000000        -1.737466623651732E-006
   93.7293750000000        -2.212320003460477E-006
   93.9431250000000        -2.593829539866092E-006
   94.1568750000000        -2.847102082316185E-006
   94.3706250000000        -2.942031785754269E-006
   94.5843750000000        -2.855659061200598E-006
   94.7981250000000        -2.574299606864584E-006
   95.0118750000000        -2.095297068409366E-006
   95.2256250000000        -1.428262462266045E-006
   95.4393750000000        -5.956811642979696E-007
   95.6531250000000         3.672061742366814E-007
   95.8668750000000         1.413309515769000E-006
   96.0806250000000         2.485403549574822E-006
   96.2943750000000         3.518627083872212E-006
   96.5081250000000         4.443697135117651E-006
   96.7218750000000         5.190718423477920E-006
   96.9356250000000         5.693421766923451E-006
   97.1493750000000         5.893621993964243E-006
   97.3631250000000         5.745650484977317E-006
   97.5768750000000         5.220492316032905E-006
   97.7906250000000         4.309346033214116E-006
   98.0043750000000         3.026327726724309E-006
   98.2181250000000         1.410062043913668E-006
   98.4318750000000        -4.760580405119030E-007
   98.6456250000000        -2.545103673770872E-006
   98.8593750000000        -4.689421920558112E-006
   99.0731250000000        -6.785026187188726E-006
   99.2868750000000        -8.697466624405499E-006
   99.5006250000000        -1.028897890065957E-005
   99.7143750000000        -1.142660776534764E-005
   99.9281250000000        -1.199090750098825E-005
   100.141875000000        -1.188474164814656E-005
   100.355625000000        -1.104164607082521E-005
   100.569375000000        -9.433188676574552E-006
   100.783125000000        -7.074760960495966E-006
   100.996875000000        -4.029274477714084E-006
   101.210625000000        -4.083108520641161E-007
   101.424375000000         3.629613804552906E-006
   101.638125000000         7.883863447089271E-006
   101.851875000000         1.211959562627777E-005
   102.065625000000         1.607860120316362E-005
   102.279375000000         1.949269565342641E-005
   102.493125000000         2.209908859717890E-005
   102.706875000000         2.365697557574945E-005
   102.920625000000         2.396444307172611E-005
   103.134375000000         2.287466721668042E-005
   103.348125000000         2.031032999049818E-005
   103.561875000000         1.627518306704365E-005
   103.775625000000         1.086176466850413E-005
   103.989375000000         4.254420790862039E-006
   104.203125000000        -3.273003585170573E-006
   104.416875000000        -1.136516248557742E-005
   104.630625000000        -1.959893123903510E-005
   104.844375000000        -2.750253169436075E-005
   105.058125000000        -3.457937032125384E-005
   105.271875000000        -4.033554129063443E-005
   105.485625000000        -4.430962394120329E-005
   105.699375000000        -4.610314078942560E-005
   105.913125000000        -4.540986088285074E-005
   106.126875000000        -4.204205274917132E-005
   106.340625000000        -3.595182520796848E-005
   106.554375000000        -2.724585004967137E-005
   106.768125000000        -1.619203756510730E-005
   106.981875000000        -3.217125403102217E-006
   107.195625000000         1.110537378793154E-005
   107.409375000000         2.607686478055741E-005
   107.623125000000         4.090440602408919E-005
   107.836875000000         5.473929524277648E-005
   108.050625000000         6.672174722536864E-005
   108.264375000000         7.602941846535885E-005
   108.478125000000         8.192715576736152E-005
   108.691875000000         8.381510983755539E-005
   108.905625000000         8.127228318153767E-005
   109.119375000000         7.409268743792940E-005
   109.333125000000         6.231157043736226E-005
   109.546875000000         4.621962778851413E-005
   109.760625000000         2.636371601751060E-005
   109.974375000000         3.533302051069654E-006
   110.188125000000        -2.126732365493033E-005
   110.401875000000        -4.686022260797164E-005
   110.615625000000        -7.194672606103241E-005
   110.829375000000        -9.516972129728989E-005
   111.043125000000        -1.151823218063335E-004
   111.256875000000        -1.307194810911247E-004
   111.470625000000        -1.406688383429708E-004
   111.684375000000        -1.441370143649989E-004
   111.898125000000        -1.405077128921693E-004
   112.111875000000        -1.294883181863503E-004
   112.325625000000        -1.111421950044199E-004
   112.539375000000        -8.590456210702915E-005
   112.753125000000        -5.458058792478483E-005
   112.966875000000        -1.832520432982957E-005
   113.180625000000         2.139499286509441E-005
   113.394375000000         6.285653367863020E-005
   113.608125000000         1.041485350196629E-004
   113.821875000000         1.432541109417343E-004
   114.035625000000         1.781404271813363E-004
   114.249375000000         2.068536521944416E-004
   114.463125000000         2.276147659351112E-004
   114.676875000000         2.389120534986225E-004
   114.890625000000         2.395861325926319E-004
   115.104375000000         2.289035363388727E-004
   115.318125000000         2.066151880027032E-004
   115.531875000000         1.729965521816084E-004
   115.745625000000         1.288668173851496E-004
   115.959375000000         7.558514716006418E-005
   116.173125000000         1.502281981769292E-005
   116.386875000000        -5.048905202359827E-005
   116.600625000000        -1.182355864413520E-004
   116.814375000000        -1.852163474752154E-004
   117.028125000000        -2.482630482085311E-004
   117.241875000000        -3.041730531005100E-004
   117.455625000000        -3.498540060884997E-004
   117.669375000000        -3.824740138522529E-004
   117.883125000000        -3.996110571328100E-004
   118.096875000000        -3.993947439397609E-004
   118.310625000000        -3.806332142563199E-004
   118.524375000000        -3.429180101215500E-004
   118.738125000000        -2.867000826931562E-004
   118.951875000000        -2.133308501055215E-004
   119.165625000000        -1.250633587334237E-004
   119.379375000000        -2.501012473585224E-005
   119.593125000000         8.294389488017469E-005
   119.806875000000         1.942725969450794E-004
   120.020625000000         3.039813411179950E-004
   120.234375000000         4.068154997315057E-004
   120.448125000000         4.974972125395628E-004
   120.661875000000         5.709804538844510E-004
   120.875625000000         6.227127184283239E-004
   121.089375000000         6.488903272532353E-004
   121.303125000000         6.466936728353459E-004
   121.516875000000         6.144887550869608E-004
   121.730625000000         5.519821701329912E-004
   121.944375000000         4.603183132519381E-004
   122.158125000000         3.421099130895355E-004
   122.371875000000         2.013960411609442E-004
   122.585625000000         4.352530577057210E-005
   122.799375000000        -1.250341330871712E-004
   123.013125000000        -2.969520114959497E-004
   123.226875000000        -4.643511559906736E-004
   123.440625000000        -6.191670299141436E-004
   123.654375000000        -7.535351143863061E-004
   123.868125000000        -8.601872524000847E-004