  -1.60312500000000         4.458403264805635E-024
  -1.38937500000000         4.292699116644825E-023
  -1.17562500000000         2.429929820911132E-022
 -0.961875000000000         9.893372880413126E-022
 -0.748125000000000         3.052396357660727E-021
 -0.534375000000000         6.609391880880807E-021
 -0.320625000000000         5.091317651904848E-021
 -0.106875000000000        -3.591369365644922E-020
  0.106875000000000        -2.312936240150969E-019
  0.320625000000000        -8.786650102370666E-019
  0.534375000000000        -2.622489927672115E-018
  0.748125000000000        -6.673124663427801E-018
  0.961875000000000        -1.505648645971269E-017
   1.17562500000000        -3.086184024245468E-017
   1.38937500000000        -5.845003798734078E-017
   1.60312500000000        -1.035852186242933E-016
   1.81687500000000        -1.734727296661924E-016
   2.03062500000000        -2.766736198865791E-016
   2.24437500000000        -4.228778111846127E-016
   2.45812500000000        -6.225416128692917E-016
   2.67187500000000        -8.863868047825993E-016
   2.88562500000000        -1.224840000234406E-015
   3.09937500000000        -1.647390596223239E-015
   3.31312500000000        -2.161980606470206E-015
   3.52687500000000        -2.774503967089546E-015
   3.74062500000000        -3.488427130947242E-015
   3.95437500000000        -4.304669610616807E-015
   4.16812500000000        -5.221732201905483E-015
   4.38187500000000        -6.236117378419787E-015
   4.59562500000000        -7.342970241871648E-015
   4.80937500000000        -8.536918123523731E-015
   5.02312500000000        -9.813021584785562E-015
   5.23687500000000        -1.116765196308445E-014
   5.45062500000000        -1.259921627430096E-014
   5.66437500000000        -1.410852362757822E-014
   5.87812500000000        -1.569878522924043E-014
   6.09187500000000        -1.737516181312983E-014
   6.30562500000000        -1.914376669805907E-014
   6.51937500000000        -2.101038090378864E-014
   6.73312500000000        -2.297892637488814E-014
   6.94687500000000        -2.504989878486031E-014
   7.16062500000000        -2.721903290580319E-014
   7.37437500000000        -2.947645059440693E-014
   7.58812500000000        -3.180646683220129E-014
   7.80187500000000        -3.418806488765036E-014
   8.01562500000000        -3.659619097154121E-014
   8.22937500000000        -3.900366215612441E-014
   8.44312500000000        -4.138347169258702E-014
   8.65687500000000        -4.371115106844435E-014
   8.87062500000000        -4.596688469982766E-014
   9.08437500000000        -4.813706398360365E-014
   9.29812500000000        -5.021492495057317E-014
   9.51187500000000        -5.220019961900958E-014
   9.72562500000000        -5.409782557970330E-014
   9.93937500000000        -5.591589724906643E-014
   10.1531250000000        -5.766318208786786E-014
   10.3668750000000        -5.934659877219033E-014
   10.5806250000000        -6.096912505443504E-014
   10.7943750000000        -6.252861403597377E-014
   11.0081250000000        -6.401759368932189E-014
   11.2218750000000        -6.542424442021990E-014
   11.4356250000000        -6.673445791764465E-014
   11.6493750000000        -6.793453170735801E-014
   11.8631250000000        -6.901409891146706E-014
   12.0768750000000        -6.996875227114933E-014
   12.2906250000000        -7.080187334547282E-014
   12.5043750000000        -7.152522467055973E-014
   12.7181250000000        -7.215818862796738E-014
   12.9318750000000        -7.272568385503303E-014
   13.1456250000000        -7.325500595289945E-014
   13.3593750000000        -7.377216145576043E-014
   13.5731250000000        -7.429822955488347E-014
   13.7868750000000        -7.484639810964162E-014
   14.0006250000000        -7.542018281843562E-014
   14.2143750000000        -7.601313688724337E-014
   14.4281250000000        -7.661017663740120E-014
   14.6418750000000        -7.719027600587961E-014
   14.8556250000000        -7.773013699765854E-014
   15.0693750000000        -7.820824312080430E-014
   15.2831250000000        -7.860865996440384E-014
   15.4968750000000        -7.892400571306423E-014
   15.7106250000000        -7.915706777321079E-014
   15.9243750000000        -7.932092098331944E-014
   16.1381250000000        -7.943758969461457E-014
   16.3518750000000        -7.953544780107555E-014
   16.5656250000000        -7.964593627977093E-014
   16.7793750000000        -7.980008361764789E-014
   16.9931250000000        -8.002539746050616E-014
   17.2068750000000        -8.034364438604841E-014
   17.4206250000000        -8.076975947219918E-014
   17.6343750000000        -8.131197383046442E-014
   17.8481250000000        -8.197299197408150E-014
   18.0618750000000        -8.275195550066750E-014
   18.2756250000000        -8.364670532399902E-014
   18.4893750000000        -8.465593759960142E-014
   18.7031250000000        -8.578077389868875E-014
   18.9168750000000        -8.702549922260267E-014
   19.1306250000000        -8.839745618839409E-014
   19.3443750000000        -8.990595762353274E-014
   19.5581250000000        -9.156056460311702E-014
   19.7718750000000        -9.336905549996848E-014
   19.9856250000000        -9.533538695178105E-014
   20.1993750000000        -9.745802997109471E-014
   20.4131250000000        -9.972895598966407E-014
   20.6268750000000        -1.021334551611911E-013
   20.8406250000000        -1.046507508969372E-013
   21.0543750000000        -1.072554206015511E-013
   21.2681250000000        -1.099193952976324E-013
   21.4818750000000        -1.126142339624230E-013
   21.6956250000000        -1.153134334640054E-013
   21.9093750000000        -1.179945355407849E-013
   22.1231250000000        -1.206407610402729E-013
   22.3368750000000        -1.232419976176694E-013
   22.5506250000000        -1.257951755995850E-013
   22.7643750000000        -1.283039296558220E-013
   22.9781250000000        -1.307776691166465E-013
   23.1918750000000        -1.332302178109156E-013
   23.4056250000000        -1.356781371905772E-013
   23.6193750000000        -1.381390238097662E-013
   23.8331250000000        -1.406299061876368E-013
   24.0468750000000        -1.431658759861946E-013
   24.2606250000000        -1.457591178409179E-013
   24.4743750000000        -1.484184227563374E-013
   24.6881250000000        -1.511491063661454E-013
   24.9018750000000        -1.539532305309682E-013
   25.1156250000000        -1.568300933929906E-013
   25.3293750000000        -1.597766923935174E-013
   25.5431250000000        -1.627880722485966E-013
   25.7568750000000        -1.658574574051783E-013
   25.9706250000000        -1.689759362452747E-013
   26.1843750000000        -1.721318522071774E-013
   26.3981250000000        -1.753100464344117E-013
   26.6118750000000        -1.784910662557216E-013
   26.8256250000000        -1.816506091989783E-013
   27.0393750000000        -1.847595152631593E-013
   27.2531250000000        -1.877845374020651E-013
   27.4668750000000        -1.906899123458651E-013
   27.6806250000000        -1.934397730657716E-013
   27.8943750000000        -1.960012867784097E-013
   28.1081250000000        -1.983480582613597E-013
   28.3218750000000        -2.004633855106228E-013
   28.5356250000000        -2.023429014833817E-013
   28.7493750000000        -2.039961762087759E-013
   28.9631250000000        -2.054469155232605E-013
   29.1768750000000        -2.067315691006720E-013
   29.3906250000000        -2.078964934908263E-013
   29.6043750000000        -2.089939140577532E-013
   29.8181250000000        -2.100772222918406E-013
   30.0318750000000        -2.111961971669091E-013
   30.2456250000000        -2.123927440253207E-013
   30.4593750000000        -2.136977452448101E-013
   30.6731250000000        -2.151293699134667E-013
   30.8868750000000        -2.166930002202208E-013
   31.1006250000000        -2.183826981244999E-013
   31.3143750000000        -2.201838522543700E-013
   31.5281250000000        -2.220765604781458E-013
   31.7418750000000        -2.240391462776794E-013
   31.9556250000000        -2.260512670692963E-013
   32.1693750000000        -2.280962222638964E-013
   32.3831250000000        -2.301622088722300E-013
   32.5968750000000        -2.322424578294090E-013
   32.8106250000000        -2.343344723291562E-013
   33.0243750000000        -2.364386956876884E-013
   33.2381250000000        -2.385570041933887E-013
   33.4518750000000        -2.406914499522657E-013
   33.6656250000000        -2.428435493325017E-013
   33.8793750000000        -2.450143264026577E-013
   34.0931250000000        -2.472050540370471E-013
   34.3068750000000        -2.494185272926450E-013
   34.5206250000000        -2.516605671251196E-013
   34.7343750000000        -2.539413680322637E-013
   34.9481250000000        -2.562763210282997E-013
   35.1618750000000        -2.586860338061411E-013
   35.3756250000000        -2.611954613551906E-013
   35.5893750000000        -2.638321202471754E-013
   35.8031250000000        -2.666236029404896E-013
   36.0168750000000        -2.695948087545902E-013
   36.2306250000000        -2.727651699025646E-013
   36.4443750000000        -2.761463717615499E-013
   36.6581250000000        -2.797408872061422E-013
   36.8718750000000        -2.835415308995812E-013
   37.0856250000000        -2.875321335187040E-013
   37.2993750000000        -2.916892379428074E-013
   37.5131250000000        -2.959845759586666E-013
   37.7268750000000        -3.003879928700826E-013
   37.9406250000000        -3.048704772368270E-013
   38.1543750000000        -3.094068388913415E-013
   38.3681250000000        -3.139777468680088E-013
   38.5818750000000        -3.185708772531649E-013
   38.7956250000000        -3.231810959712667E-013
   39.0093750000000        -3.278096479590157E-013
   39.2231250000000        -3.324625004184969E-013
   39.4368750000000        -3.371480663797101E-013
   39.6506250000000        -3.418746341952658E-013
   39.8643750000000        -3.466479171066487E-013
   40.0781250000000        -3.514689075119526E-013
   40.2918750000000        -3.563324136050446E-013
   40.5056250000000        -3.612265207522535E-013
   40.7193750000000        -3.661330080889428E-013
   40.9331250000000        -3.710287422094043E-013
   41.1468750000000        -3.758878988381192E-013
   41.3606250000000        -3.806847337935735E-013
   41.5743750000000        -3.853965891846619E-013
   41.7881250000000        -3.900066967434268E-013
   42.0018750000000        -3.945064185883999E-013
   42.2156250000000        -3.988966102793219E-013
   42.4293750000000        -4.031878110747754E-013
   42.6431250000000        -4.073992538663350E-013
   42.8568750000000        -4.115567564731460E-013
   43.0706250000000        -4.156897298377765E-013
   43.2843750000000        -4.198277049506432E-013
   43.4981250000000        -4.239968243253511E-013
   43.7118750000000        -4.282167806523966E-013
   43.9256250000000        -4.324986238619137E-013
   44.1393750000000        -4.368436957271727E-013
   44.3531250000000        -4.412438633032268E-013
   44.5668750000000        -4.456829646536211E-013
   44.7806250000000        -4.501391432403880E-013
   44.9943750000000        -4.545877903001966E-013
   45.2081250000000        -4.590046112539320E-013
   45.4218750000000        -4.633683175475759E-013
   45.6356250000000        -4.676626061965178E-013
   45.8493750000000        -4.718772071063085E-013
   46.0631250000000        -4.760079516380149E-013
   46.2768750000000        -4.800560291369257E-013
   46.4906250000000        -4.840266760874176E-013
   46.7043750000000        -4.879276680039212E-013
   46.9181250000000        -4.917680581237650E-013
   47.1318750000000        -4.955574255033097E-013
   47.3456250000000        -4.993058306519401E-013
   47.5593750000000        -5.030244968227136E-013
   47.7731250000000        -5.067270366088510E-013
   47.9868750000000        -5.104309029979847E-013
   48.2006250000000        -5.141586698555119E-013
   48.4143750000000        -5.179387372706615E-013
   48.6281250000000        -5.218051257333130E-013
   48.8418750000000        -5.257961644586550E-013
   49.0556250000000        -5.299520573240646E-013
   49.2693750000000        -5.343116143251257E-013
   49.4831250000000        -5.389085349663397E-013
   49.6968750000000        -5.437677312959593E-013
   49.9106250000000        -5.489023191020659E-013
   50.1243750000000        -5.543117550257080E-013
   50.3381250000000        -5.599814904941042E-013
   50.5518750000000        -5.658842641204900E-013
   50.7656250000000        -5.719829203998296E-013
   50.9793750000000        -5.782344640491125E-013
   51.1931250000000        -5.845947506457711E-013
   51.4068750000000        -5.910231879345249E-013
   51.6206250000000        -5.974867999956510E-013
   51.8343750000000        -6.039630797378223E-013
   52.0481250000000        -6.104413054195573E-013
   52.2618750000000        -6.169221664301790E-013
   52.4756250000000        -6.234158627011719E-013
   52.6893750000000        -6.299390537505391E-013
   52.9031250000000        -6.365112117103518E-013
   53.1168750000000        -6.431510623767030E-013
   53.3306250000000        -6.498736913897057E-013
   53.5443750000000        -6.566887392216686E-013
   53.7581250000000        -6.636000179907965E-013
   53.9718750000000        -6.706065100095616E-013
   54.1856250000000        -6.777044028153965E-013
   54.3993750000000        -6.848897278962991E-013
   54.6131250000000        -6.921609695150067E-013
   54.8268750000000        -6.995209650040153E-013
   55.0406250000000        -7.069776137126772E-013
   55.2543750000000        -7.145430657295788E-013
   55.4681250000000        -7.222313083423078E-013
   55.6818750000000        -7.300545096941512E-013
   55.8956250000000        -7.380186461774532E-013
   56.1093750000000        -7.461191906530340E-013
   56.3231250000000        -7.543377433239882E-013
   56.5368750000000        -7.626403241522763E-013
   56.7506250000000        -7.709779685193915E-013
   56.9643750000000        -7.792898999112683E-013
   57.1781250000000        -7.875090663099883E-013
   57.3918750000000        -7.955695376746708E-013
   57.6056250000000        -8.034149244519218E-013
   57.8193750000000        -8.110065873201232E-013
   58.0331250000000        -8.183304653640297E-013
   58.2468750000000        -8.254014486282927E-013
   58.4606250000000        -8.322643246352526E-013
   58.6743750000000        -8.389908613762163E-013
   58.8881250000000        -8.456730851437640E-013
   59.1018750000000        -8.524132688610838E-013
   59.3156250000000        -8.593116501377405E-013
   59.5293750000000        -8.664531434461658E-013
   59.7431250000000        -8.738947458564889E-013
   59.9568750000000        -8.816553361118623E-013
   60.1706250000000        -8.897091769161484E-013
   60.3843750000000        -8.979844138549590E-013
   60.5981250000000        -9.063672121764301E-013
   60.8118750000000        -9.147117657428780E-013
   61.0256250000000        -9.228555669828448E-013
   61.2393750000000        -9.306388200916677E-013
   61.4531250000000        -9.379264178668179E-013
   61.6668750000000        -9.446300644216024E-013
   61.8806250000000        -9.507281528616350E-013
   62.0943750000000        -9.562806740285764E-013
   62.3081250000000        -9.614365533683504E-013
   62.5218750000000        -9.664313653746678E-013
   62.7356250000000        -9.715739688085969E-013
   62.9493750000000        -9.772217158029931E-013
   63.1631250000000        -9.837451898814649E-013
   63.3768750000000        -9.914848319949958E-013
   63.5906250000000        -1.000703303034541E-012
   63.8043750000000        -1.011538754736389E-012
   64.0181250000000        -1.023965026224468E-012
   64.2318750000000        -1.037765111814374E-012
   64.4456250000000        -1.052523792092143E-012
   64.6593750000000        -1.067643961598334E-012
   64.8731250000000        -1.082389013601896E-012
   65.0868750000000        -1.095950575060863E-012
   65.3006250000000        -1.107537504319713E-012
   65.5143750000000        -1.116478542153266E-012
   65.7281250000000        -1.122327773858900E-012
   65.9418750000000        -1.124959857963232E-012
   66.1556250000000        -1.124640947486800E-012
   66.3693750000000        -1.122062135414491E-012
   66.5831250000000        -1.118325042680520E-012
   66.7968750000000        -1.114873477739164E-012
   67.0106250000000        -1.113371304896750E-012
   67.2243750000000        -1.115533669486771E-012
   67.4381250000000        -1.122925588526656E-012
   67.6518750000000        -1.136748295146454E-012
   67.8656250000000        -1.157638219708445E-012
   68.0793750000000        -1.185505322152963E-012
   68.2931250000000        -1.219436254054922E-012
   68.5068750000000        -1.257683047883822E-012
   68.7206250000000        -1.297750151050043E-012
   68.9343750000000        -1.336582127858012E-012
   69.1481250000000        -1.370842256169158E-012
   69.3618750000000        -1.397260029254127E-012
   69.5756250000000        -1.413014665862995E-012
   69.7893750000000        -1.416113695439024E-012
   70.0031250000000        -1.405721790724485E-012
   70.2168750000000        -1.382396223154124E-012
   70.4306250000000        -1.348191814516393E-012
   70.6443750000000        -1.306609803825117E-012
   70.8581250000000        -1.262380814339433E-012
   71.0718750000000        -1.221090294557909E-012
   71.2856250000000        -1.188673492518047E-012
   71.4993750000000        -1.170824060162566E-012
   71.7131250000000        -1.172373521154571E-012
   71.9268750000000        -1.196706316516446E-012
   72.1406250000000        -1.245275577180442E-012
   72.3543750000000        -1.317277888255596E-012
   72.5681250000000        -1.409531386365543E-012
   72.7818750000000        -1.516581930057579E-012
   72.9956250000000        -1.631038989881286E-012
   73.2093750000000        -1.744118778488319E-012
   73.4231250000000        -1.846349931920947E-012
   73.6368750000000        -1.928379445732779E-012
   73.8506250000000        -1.981805704961964E-012
   74.0643750000000        -1.999962604907848E-012
   74.2781250000000        -1.978584414009658E-012
   74.4918750000000        -1.916294170557409E-012
   74.7056250000000        -1.814877159342526E-012
   74.9193750000000        -1.679322906640247E-012
   75.1331250000000        -1.517640917784581E-012
   75.3468750000000        -1.340473929199265E-012
   75.5606250000000        -1.160545544438935E-012
   75.7743750000000        -9.919849952022226E-013
   75.9881250000000        -8.495701569812820E-013
   76.2018750000000        -7.479222163527822E-013
   76.4156250000000        -7.006738528000347E-013
   76.6293750000000        -7.196209438373944E-013
   76.8431250000000        -8.138594450887716E-013
   77.0568750000000        -9.889079400616692E-013
   77.2706250000000        -1.245824965740195E-012
   77.4843750000000        -1.580349238511577E-012
   77.6981250000000        -1.982119567317676E-012
   77.9118750000000        -2.434065282216567E-012
   78.1256250000000        -2.912091865778173E-012
   78.3393750000000        -3.385212761834628E-012
   78.5531250000000        -3.816288381298321E-012
   78.7668750000000        -4.163519876225628E-012
   78.9806250000000        -4.382802681760761E-012
   79.1943750000000        -4.430970379556795E-012
   79.4081250000000        -4.269855443668550E-012
   79.6218750000000        -3.870966907624661E-012
   79.8356250000000        -3.220448117901957E-012
   80.0493750000000        -2.323847013667623E-012
   80.2631250000000        -1.210126098105402E-012
   80.4768750000000         6.571996623854441E-014
   80.6906250000000         1.422066460764229E-012
   80.9043750000000         2.752625146125737E-012
   81.1181250000000         3.931353053072333E-012
   81.3318750000000         4.820433304490821E-012
   81.5456250000000         5.281142545997236E-012
   81.7593750000000         5.187061731995546E-012
   81.9731250000000         4.438720806189021E-012
   82.1868750000000         2.978434859457357E-012
   82.4006250000000         8.038333404757421E-013
   82.6143750000000        -2.021552292570396E-012
   82.8281250000000        -5.362258120818143E-012
   83.0418750000000        -9.010833251621739E-012
   83.2556250000000        -1.269479856475103E-011
   83.4693750000000        -1.609110339663328E-011
   83.6831250000000        -1.884787573729349E-011
   83.8968750000000        -2.061248980275500E-011
   84.1106250000000        -2.106419067101627E-011
   84.3243750000000        -1.994880057807901E-011
   84.5381250000000        -1.711246846642341E-011
   84.7518750000000        -1.253109191321496E-011
   84.9656250000000        -6.332001508940982E-012
   85.1793750000000         1.195208677136483E-012
   85.3931250000000         9.601184379852239E-012
   85.6068750000000         1.829417320083587E-011
   85.8206250000000         2.657255687635245E-011
   86.0343750000000         3.367148375023368E-011
   86.2481250000000         3.882109960080782E-011
   86.4618750000000         4.131252544661591E-011
   86.6756250000000         4.056660115561264E-011
   86.8893750000000         3.619963108755524E-011
   87.1031250000000         2.808003725114287E-011
   87.3168750000000         1.637001676048092E-011
   87.5306250000000         1.547039261257320E-012
   87.7443750000000        -1.559871707260407E-011
   87.9581250000000        -3.399317966127388E-011
   88.1718750000000        -5.233359251338578E-011
   88.3856250000000        -6.916805734941850E-011
   88.5993750000000        -8.299513546581071E-011
   88.8131250000000        -9.237724101873608E-011
   89.0268750000000        -9.605994155611139E-011
   89.2406250000000        -9.308820975538451E-011
   89.4543750000000        -8.291025915729456E-011
   89.6681250000000        -6.545991155961355E-011
   89.8818750000000        -4.120949146100652E-011
   90.0956250000000        -1.118696991875186E-011
   90.3093750000000         2.304662406529387E-011
   90.5231250000000         5.946080033283510E-011
   90.7368750000000         9.565856439888556E-011
   90.9506250000000         1.290141568527050E-010
   91.1643750000000         1.568382760613972E-010
   91.3781250000000         1.765611690064026E-010
   91.5918750000000         1.859222333446467E-010
   91.8056250000000         1.831537320147494E-010
   92.0193750000000         1.671459571043225E-010
   92.2331250000000         1.375817164318122E-010
   92.4468750000000         9.502932804754141E-011
   92.6606250000000         4.098532173851126E-011
   92.8743750000000        -2.213934830719374E-011
   93.0881250000000        -9.109271755446243E-011
   93.3018750000000        -1.619146372567712E-010
   93.5156250000000        -2.301253169962897E-010
   93.7293750000000        -2.909624457693531E-010
   93.9431250000000        -3.396565141897752E-010
   94.1568750000000        -3.717310772043672E-010
   94.3706250000000        -3.833123141911830E-010
   94.5843750000000        -3.714304939930732E-010
   94.7981250000000        -3.342949548078010E-010
   95.0118750000000        -2.715240679144961E-010
   95.2256250000000        -1.843124553848317E-010
   95.4393750000000        -7.551953618339368E-011
   95.6531250000000         5.033368926789515E-011
   95.8668750000000         1.871688529712186E-010
   96.0806250000000         3.275598653542614E-010
   96.2943750000000         4.630468038576496E-010
   96.5081250000000         5.845466111420466E-010
   96.7218750000000         6.828465795686044E-010
   96.9356250000000         7.491600044666265E-010
   97.1493750000000         7.757171938903761E-010
   97.3631250000000         7.563596725511038E-010
   97.5768750000000         6.871013739911794E-010
   97.7906250000000         5.666183244001825E-010
   98.0043750000000         3.966281782359988E-010
   98.2181250000000         1.821232730382969E-010
   98.4318750000000        -6.857419504283398E-011
   98.6456250000000        -3.439586966973350E-010
   98.8593750000000        -6.297033664352755E-010
   99.0731250000000        -9.092390804130050E-010
   99.2868750000000        -1.164538511933941E-009
   99.5006250000000        -1.377078534583159E-009
   99.7143750000000        -1.528939883733878E-009
   99.9281250000000        -1.603989575129683E-009
   100.141875000000        -1.589080233395496E-009
   100.355625000000        -1.475192192289764E-009
   100.569375000000        -1.258439878534506E-009
   100.783125000000        -9.408642933775626E-010
   100.996875000000        -5.309388302261671E-010
   101.210625000000        -4.372638450604323E-011
   101.424375000000         4.993584424587978E-010
   101.638125000000         1.071207794447490E-009
   101.851875000000         1.640101243389151E-009
   102.065625000000         2.171183598321515E-009
   102.279375000000         2.628287031710521E-009
   102.493125000000         2.976017692657703E-009
   102.706875000000         3.182002448962475E-009
   102.920625000000         3.219171188178712E-009
   103.134375000000         3.067935919997430E-009
   103.348125000000         2.718121233776372E-009
   103.561875000000         2.170502600333763E-009
   103.775625000000         1.437820234074061E-009
   103.989375000000         5.451568774741034E-010
   104.203125000000        -4.704025372016295E-010
   104.416875000000        -1.560873949332371E-009
   104.630625000000        -2.669240960311545E-009
   104.844375000000        -3.732038868412311E-009
   105.058125000000        -4.682560784145038E-009
   105.271875000000        -5.454543813259036E-009
   105.485625000000        -5.986151438542377E-009
   105.699375000000        -6.224034473729992E-009
   105.913125000000        -6.127230138588277E-009
   106.126875000000        -5.670649266114299E-009
   106.340625000000        -4.847907071454074E-009
   106.554375000000        -3.673274105510138E-009
   106.768125000000        -2.182560826556044E-009
   106.981875000000        -4.328004509634801E-010
   107.195625000000         1.499341851779805E-009
   107.409375000000         3.520432978865928E-009
   107.623125000000         5.524331359791512E-009
   107.836875000000         7.397286432683400E-009
   108.050625000000         9.023849623704307E-009
   108.264375000000         1.029330477463408E-008
   108.478125000000         1.110627653277313E-008
   108.691875000000         1.138114382080122E-008
   108.905625000000         1.105987508132743E-008
   109.119375000000         1.011291425181675E-008
   109.333125000000         8.542781679149315E-009
   109.546875000000         6.386111255811194E-009
   109.760625000000         3.713921320155181E-009
   109.974375000000         6.300083514635972E-010
   110.188125000000        -2.732545850581878E-009
   110.401875000000        -6.216656824576903E-009
   110.615625000000        -9.648109196771454E-009
   110.829375000000        -1.284372086030895E-008
   111.043125000000        -1.562042098165441E-008
   111.256875000000        -1.780480026374224E-008
   111.470625000000        -1.924265176275831E-008
   111.684375000000        -1.980800573315059E-008
   111.898125000000        -1.941117341200485E-008
   112.111875000000        -1.800535174119033E-008
   112.325625000000        -1.559140168440734E-008
   112.539375000000        -1.222049366087348E-008
   112.753125000000        -7.994410305369238E-009
   112.966875000000        -3.063404205215021E-009
   113.180625000000         2.378378948645268E-009
   113.394375000000         8.099788620429905E-009
   113.608125000000         1.384163829616484E-008
   113.821875000000         1.932742612859082E-008
   114.035625000000         2.427539383023966E-008
   114.249375000000         2.841144179525764E-008
   114.463125000000         3.148236818871330E-008
   114.676875000000         3.326886900669132E-008
   114.890625000000         3.359772548818774E-008
   115.104375000000         3.235261485828321E-008
   115.318125000000         2.948300996327507E-008
   115.531875000000         2.501068246301275E-008
   115.745625000000         1.903339226585505E-008
   115.959375000000         1.172543207433357E-008
   116.173125000000         3.334799285778028E-009
   116.386875000000        -5.823113265468153E-009
   116.600625000000        -1.537528300937720E-008
   116.814375000000        -2.490411050975973E-008
   117.028125000000        -3.396343797546368E-008
   117.241875000000        -4.209705673619240E-008
   117.455625000000        -4.885907497408091E-008
   117.669375000000        -5.383537528812475E-008
   117.883125000000        -5.666526845666542E-008
   118.096875000000        -5.706235387062998E-008
   118.310625000000        -5.483353747792601E-008
   118.524375000000        -4.989514313049013E-008
   118.738125000000        -4.228509013312589E-008
   118.951875000000        -3.217020370946211E-008
   119.165625000000        -1.984787841566081E-008
   119.379375000000        -5.741526237965366E-009
   119.593125000000         9.610493665440771E-009
   119.806875000000         2.557245683208053E-008
   120.020625000000         4.143501885531892E-008
   120.234375000000         5.644441977064796E-008
   120.448125000000         6.983609119759880E-008
   120.661875000000         8.087128412671202E-008
   120.875625000000         8.887505740678082E-008
   121.089375000000         9.327375836814306E-008
   121.303125000000         9.363000645369077E-008
   121.516875000000         8.967317318225680E-008
   121.730625000000         8.132344696043105E-008
   121.944375000000         6.870778256938545E-008
   122.158125000000         5.216635888104673E-008
   122.371875000000         3.224859342669692E-008
   122.585625000000         9.698270598886773E-009
   122.799375000000        -1.457209320084973E-008
   123.013125000000        -3.951692922538041E-008
   123.226875000000        -6.400203288296879E-008
   123.440625000000        -8.685585982085183E-008
   123.654375000000        -1.069253702125226E-007
   123.868125000000        -1.231337228101406E-007