  -1.60312500000000        -1.004125370990226E-019
  -1.38937500000000         1.723268899110525E-018
  -1.17562500000000         1.924009601364701E-017
 -0.961875000000000         1.198154570731458E-016
 -0.748125000000000         5.633906658433692E-016
 -0.534375000000000         2.190130378910335E-015
 -0.320625000000000         7.305854405419802E-015
 -0.106875000000000         2.131792295574200E-014
  0.106875000000000         5.523234593180594E-014
  0.320625000000000         1.286058899535368E-013
  0.534375000000000         2.720537845790645E-013
  0.748125000000000         5.285158694872262E-013
  0.961875000000000         9.520388588274380E-013
   1.17562500000000         1.604205116618925E-012
   1.38937500000000         2.548484719374616E-012
   1.60312500000000         3.842967607567509E-012
   1.81687500000000         5.532806580698152E-012
   2.03062500000000         7.642375814543891E-012
   2.24437500000000         1.016946611340233E-011
   2.45812500000000         1.308118421789417E-011
   2.67187500000000         1.631233498665045E-011
   2.88562500000000         1.976988417413177E-011
   3.09937500000000         2.333679724681704E-011
   3.31312500000000         2.688267496110486E-011
   3.52687500000000         3.027370134256126E-011
   3.74062500000000         3.338601214645918E-011
   3.95437500000000         3.611746263924174E-011
   4.16812500000000         3.839585043780915E-011
   4.38187500000000         4.018309648175577E-011
   4.59562500000000         4.148119495128068E-011
   4.80937500000000         4.232406260867186E-011
   5.02312500000000         4.277218076756075E-011
   5.23687500000000         4.290567583018977E-011
   5.45062500000000         4.280903694209605E-011
   5.66437500000000         4.256424532596864E-011
   5.87812500000000         4.224039038097607E-011
   6.09187500000000         4.189060098303703E-011
   6.30562500000000         4.155112740767183E-011
   6.51937500000000         4.124548561754084E-011
   6.73312500000000         4.098870022907907E-011
   6.94687500000000         4.079558883071204E-011
   7.16062500000000         4.068573639956613E-011
   7.37437500000000         4.068900595676147E-011
   7.58812500000000         4.084469695614786E-011
   7.80187500000000         4.119816333635891E-011
   8.01562500000000         4.179229653766046E-011
   8.22937500000000         4.265737513744663E-011
   8.44312500000000         4.380245464148230E-011
   8.65687500000000         4.520374286723874E-011
   8.87062500000000         4.679939279795186E-011
   9.08437500000000         4.849019082326294E-011
   9.29812500000000         5.014441191801577E-011
   9.51187500000000         5.161129656853117E-011
   9.72562500000000         5.273455134261268E-011
   9.93937500000000         5.337340731247320E-011
   10.1531250000000         5.341873017901424E-011
   10.3668750000000         5.280871081925911E-011
   10.5806250000000         5.153923349390399E-011
   10.7943750000000         4.966534826529197E-011
   11.0081250000000         4.729683636908980E-011
   11.2218750000000         4.458644143678475E-011
   11.4356250000000         4.171542777879377E-011
   11.6493750000000         3.887250946285087E-011
   11.8631250000000         3.623628595313812E-011
   12.0768750000000         3.396055219002957E-011
   12.2906250000000         3.216263058906939E-011
   12.5043750000000         3.091937234554796E-011
   12.7181250000000         3.026391379802489E-011
   12.9318750000000         3.019561331341153E-011
   13.1456250000000         3.068284924879975E-011
   13.3593750000000         3.167570657501611E-011
   13.5731250000000         3.311099372453043E-011
   13.7868750000000         3.491858011749329E-011
   14.0006250000000         3.702482656540343E-011
   14.2143750000000         3.934977206221065E-011
   14.4281250000000         4.181000454731249E-011
   14.6418750000000         4.431405623346282E-011
   14.8556250000000         4.676363441240008E-011
   15.0693750000000         4.905697033357159E-011
   15.2831250000000         5.109277237335957E-011
   15.4968750000000         5.278214667347999E-011
   15.7106250000000         5.405676550221698E-011
   15.9243750000000         5.488427992779098E-011
   16.1381250000000         5.527242990027000E-011
   16.3518750000000         5.527578519474864E-011
   16.5656250000000         5.499620419113645E-011
   16.7793750000000         5.457469884022056E-011
   16.9931250000000         5.417569292090487E-011
   17.2068750000000         5.397178713483106E-011
   17.4206250000000         5.412126434321281E-011
   17.6343750000000         5.474606446194388E-011
   17.8481250000000         5.591986607188073E-011
   18.0618750000000         5.765324684660265E-011
   18.2756250000000         5.989403218951690E-011
   18.4893750000000         6.253179227142672E-011
   18.7031250000000         6.541193962789140E-011
   18.9168750000000         6.835539004269582E-011
   19.1306250000000         7.118194376607558E-011
   19.3443750000000         7.373150458899731E-011
   19.5581250000000         7.588537826227156E-011
   19.7718750000000         7.757971092738161E-011
   19.9856250000000         7.881207558554428E-011
   20.1993750000000         7.963699081302363E-011
   20.4131250000000         8.016142382624329E-011
   20.6268750000000         8.052580072913140E-011
   20.8406250000000         8.088733283377456E-011
   21.0543750000000         8.140031121800791E-011
   21.2681250000000         8.219656364681001E-011
   21.4818750000000         8.337596353633298E-011
   21.6956250000000         8.499177700421407E-011
   21.9093750000000         8.705432055753063E-011
   22.1231250000000         8.952977952357364E-011
   22.3368750000000         9.234951561089372E-011
   22.5506250000000         9.542127477450440E-011
   22.7643750000000         9.864014647739345E-011
   22.9781250000000         1.019024332128755E-010
   23.1918750000000         1.051131993003374E-010
   23.4056250000000         1.081950030474148E-010
   23.6193750000000         1.110906675562363E-010
   23.8331250000000         1.137658618078409E-010
   24.0468750000000         1.162018358776549E-010
   24.2606250000000         1.183963025187218E-010
   24.4743750000000         1.203534312205843E-010
   24.6881250000000         1.220819555062684E-010
   24.9018750000000         1.235887427214043E-010
   25.1156250000000         1.248753461036601E-010
   25.3293750000000         1.259376237078954E-010
   25.5431250000000         1.267706011694728E-010
   25.7568750000000         1.273662779006114E-010
   25.9706250000000         1.277225270195482E-010
   26.1843750000000         1.278450306752372E-010
   26.3981250000000         1.277551443551930E-010
   26.6118750000000         1.274917752093374E-010
   26.8256250000000         1.271129917504354E-010
   27.0393750000000         1.266966533009029E-010
   27.2531250000000         1.263352565982685E-010
   27.4668750000000         1.261281564169850E-010
   27.6806250000000         1.261765223078913E-010
   27.8943750000000         1.265716004981991E-010
   28.1081250000000         1.273845004019765E-010
   28.3218750000000         1.286552446069912E-010
   28.5356250000000         1.303901140595097E-010
   28.7493750000000         1.325524051008021E-010
   28.9631250000000         1.350682183783076E-010
   29.1768750000000         1.378276014611338E-010
   29.3906250000000         1.406953114295579E-010
   29.6043750000000         1.435208878596325E-010
   29.8181250000000         1.461567067903385E-010
   30.0318750000000         1.484674490237446E-010
   30.2456250000000         1.503480512054711E-010
   30.4593750000000         1.517296833554087E-010
   30.6731250000000         1.525889577339717E-010
   30.8868750000000         1.529459439477044E-010
   31.1006250000000         1.528609935822095E-010
   31.3143750000000         1.524269262553783E-010
   31.5281250000000         1.517552445163293E-010
   31.7418750000000         1.509634320160366E-010
   31.9556250000000         1.501641965178688E-010
   32.1693750000000         1.494513120249430E-010
   32.3831250000000         1.488976225557677E-010
   32.5968750000000         1.485500433005294E-010
   32.8106250000000         1.484339087717565E-010
   33.0243750000000         1.485595048776546E-010
   33.2381250000000         1.489307126602335E-010
   33.4518750000000         1.495534481366684E-010
   33.6656250000000         1.504443977090008E-010
   33.8793750000000         1.516346765669657E-010
   34.0931250000000         1.531682060422668E-010
   34.3068750000000         1.550976542948888E-010
   34.5206250000000         1.574746998722683E-010
   34.7343750000000         1.603389910651009E-010
   34.9481250000000         1.637068494267817E-010
   35.1618750000000         1.675612444865923E-010
   35.3756250000000         1.718493059142068E-010
   35.5893750000000         1.764834139830045E-010
   35.8031250000000         1.813490026364263E-010
   36.0168750000000         1.863187469516520E-010
   36.2306250000000         1.912706305229041E-010
   36.4443750000000         1.961037664412542E-010
   36.6581250000000         2.007554372865266E-010
   36.8718750000000         2.052080157993149E-010
   37.0856250000000         2.094934804806774E-010
   37.2993750000000         2.136822305957076E-010
   37.5131250000000         2.178715561946094E-010
   37.7268750000000         2.221601532835918E-010
   37.9406250000000         2.266288520773663E-010
   38.1543750000000         2.313166547372213E-010
   38.3681250000000         2.362094099164242E-010
   38.5818750000000         2.412294405775957E-010
   38.7956250000000         2.462445928400364E-010
   39.0093750000000         2.510831280628095E-010
   39.2231250000000         2.555571553123422E-010
   39.4368750000000         2.594942552955749E-010
   39.6506250000000         2.627612776755617E-010
   39.8643750000000         2.652932931280291E-010
   40.0781250000000         2.671002077655200E-010
   40.2918750000000         2.682726670630688E-010
   40.5056250000000         2.689682016946692E-010
   40.7193750000000         2.693877763606501E-010
   40.9331250000000         2.697451688890507E-010
   41.1468750000000         2.702379539129838E-010
   41.3606250000000         2.710167173977201E-010
   41.5743750000000         2.721672564322436E-010
   41.7881250000000         2.737028609701765E-010
   42.0018750000000         2.755702890821333E-010
   42.2156250000000         2.776678929548114E-010
   42.4293750000000         2.798711223276819E-010
   42.6431250000000         2.820628391786960E-010
   42.8568750000000         2.841573591430715E-010
   43.0706250000000         2.861194171779822E-010
   43.2843750000000         2.879697674500018E-010
   43.4981250000000         2.897787605254668E-010
   43.7118750000000         2.916451265395768E-010
   43.9256250000000         2.936707940792445E-010
   44.1393750000000         2.959264411545552E-010
   44.3531250000000         2.984298691405745E-010
   44.5668750000000         3.011233295985521E-010
   44.7806250000000         3.038714707015742E-010
   44.9943750000000         3.064731172536869E-010
   45.2081250000000         3.086863991285904E-010
   45.4218750000000         3.102651399300219E-010
   45.6356250000000         3.110014885790672E-010
   45.8493750000000         3.107627463813686E-010
   46.0631250000000         3.095231709611572E-010
   46.2768750000000         3.073799259877145E-010
   46.4906250000000         3.045507509524879E-010
   46.7043750000000         3.013530444917049E-010
   46.9181250000000         2.981697314310979E-010
   47.1318750000000         2.954039889649979E-010
   47.3456250000000         2.934311022708377E-010
   47.5593750000000         2.925545026371812E-010
   47.7731250000000         2.929733327152417E-010
   47.9868750000000         2.947634672679707E-010
   48.2006250000000         2.978809850099706E-010
   48.4143750000000         3.021758409878488E-010
   48.6281250000000         3.074243519570839E-010
   48.8418750000000         3.133658300870629E-010
   49.0556250000000         3.197419508399017E-010
   49.2693750000000         3.263336095928720E-010
   49.4831250000000         3.329809418056339E-010
   49.6968750000000         3.395971600022992E-010
   49.9106250000000         3.461634183217460E-010
   50.1243750000000         3.527142095248266E-010
   50.3381250000000         3.593127686439505E-010
   50.5518750000000         3.660232314298100E-010
   50.7656250000000         3.728853635476151E-010
   50.9793750000000         3.798946429179604E-010
   51.1931250000000         3.869948762800832E-010
   51.4068750000000         3.940784007009751E-010
   51.6206250000000         4.010019456328178E-010
   51.8343750000000         4.076059360547632E-010
   52.0481250000000         4.137430076721006E-010
   52.2618750000000         4.192993590148376E-010
   52.4756250000000         4.242193245681689E-010
   52.6893750000000         4.285158380909718E-010
   52.9031250000000         4.322719438779516E-010
   53.1168750000000         4.356312645105555E-010
   53.3306250000000         4.387788943189069E-010
   53.5443750000000         4.419153003808989E-010
   53.7581250000000         4.452296806741072E-010
   53.9718750000000         4.488751823458859E-010
   54.1856250000000         4.529417633032900E-010
   54.3993750000000         4.574512611036704E-010
   54.6131250000000         4.623503979377629E-010
   54.8268750000000         4.675196975256258E-010
   55.0406250000000         4.727896395398605E-010
   55.2543750000000         4.779628986768176E-010
   55.4681250000000         4.828393066401541E-010
   55.6818750000000         4.872404430013067E-010
   55.8956250000000         4.910285800817778E-010
   56.1093750000000         4.941221341152441E-010
   56.3231250000000         4.965024200128992E-010
   56.5368750000000         4.982110647018263E-010
   56.7506250000000         4.993427201784040E-010
   56.9643750000000         5.000328542032635E-010
   57.1781250000000         5.004394293617502E-010
   57.3918750000000         5.007274066649044E-010
   57.6056250000000         5.010503704197378E-010
   57.8193750000000         5.015384068324743E-010
   58.0331250000000         5.022883886538661E-010
   58.2468750000000         5.033530323602416E-010
   58.4606250000000         5.047398677627630E-010
   58.6743750000000         5.064117570972751E-010
   58.8881250000000         5.082887128147492E-010
   59.1018750000000         5.102508768923599E-010
   59.3156250000000         5.121520994049602E-010
   59.5293750000000         5.138235846977467E-010
   59.7431250000000         5.150932423033898E-010
   59.9568750000000         5.157986768509626E-010
   60.1706250000000         5.158102865327799E-010
   60.3843750000000         5.150512926713227E-010
   60.5981250000000         5.135177527382739E-010
   60.8118750000000         5.113035174164670E-010
   61.0256250000000         5.086096423513091E-010
   61.2393750000000         5.057536225928631E-010
   61.4531250000000         5.031695541221404E-010
   61.6668750000000         5.013823870470112E-010
   61.8806250000000         5.009843697089161E-010
   62.0943750000000         5.025810293295073E-010
   62.3081250000000         5.067369750588643E-010
   62.5218750000000         5.139039558897305E-010
   62.7356250000000         5.243506031495918E-010
   62.9493750000000         5.380989720762788E-010
   63.1631250000000         5.548691326644341E-010
   63.3768750000000         5.740477523000485E-010
   63.5906250000000         5.946904294586196E-010
   63.8043750000000         6.155566848000787E-010
   64.0181250000000         6.351874682326964E-010
   64.2318750000000         6.520188742991095E-010
   64.4456250000000         6.645358301498447E-010
   64.6593750000000         6.714436240905092E-010
   64.8731250000000         6.718527731677493E-010
   65.0868750000000         6.654500772518742E-010
   65.3006250000000         6.526373149521275E-010
   65.5143750000000         6.346132405124405E-010
   65.7281250000000         6.133778409282774E-010
   65.9418750000000         5.916423333572020E-010
   66.1556250000000         5.726394589158414E-010
   66.3693750000000         5.598340992236030E-010
   66.5831250000000         5.565548195859865E-010
   66.7968750000000         5.655685939609111E-010
   67.0106250000000         5.886550350143602E-010
   67.2243750000000         6.262132188705137E-010
   67.4381250000000         6.769727084102595E-010
   67.6518750000000         7.378528127913068E-010
   67.8656250000000         8.040234723294873E-010
   68.0793750000000         8.691896733292707E-010
   68.2931250000000         9.261023003222039E-010
   68.5068750000000         9.672797591537626E-010
   68.7206250000000         9.858771844116410E-010
   68.9343750000000         9.766261094218951E-010
   69.1481250000000         9.367365105856610E-010
   69.3618750000000         8.666382384101862E-010
   69.5756250000000         7.704569180174645E-010
   69.7893750000000         6.561004082189481E-010
   70.0031250000000         5.349005650679225E-010
   70.2168750000000         4.207748497876382E-010
   70.4306250000000         3.289344546954322E-010
   70.6443750000000         2.742313463167872E-010
   70.8581250000000         2.692904811704616E-010
   71.0718750000000         3.226195999383713E-010
   71.2856250000000         4.369354233832301E-010
   71.4993750000000         6.079337693100221E-010
   71.7131250000000         8.237316366613068E-010
   71.9268750000000         1.065146802768822E-009
   72.1406250000000         1.306908023094242E-009
   72.3543750000000         1.519798000147425E-009
   72.5681250000000         1.673594415398292E-009
   72.7818750000000         1.740597348057760E-009
   72.9956250000000         1.699377030377740E-009
   73.2093750000000         1.538354852761149E-009
   73.4231250000000         1.258737405106109E-009
   73.6368750000000         8.763714794612309E-010
   73.8506250000000         4.221292356681794E-010
   74.0643750000000        -5.944284371393852E-011
   74.2781250000000        -5.133111680405361E-010
   74.4918750000000        -8.788822809696127E-010
   74.7056250000000        -1.096349493823613E-009
   74.9193750000000        -1.113937538372486E-009
   75.1331250000000        -8.953224180104358E-010
   75.3468750000000        -4.264039729085498E-010
   75.5606250000000         2.794552502347596E-010
   75.7743750000000         1.178569463454952E-009
   75.9881250000000         2.197120057996773E-009
   76.2018750000000         3.234850746290587E-009
   76.4156250000000         4.172372292499826E-009
   76.6293750000000         4.881793804509436E-009
   76.8431250000000         5.239994379041137E-009
   77.0568750000000         5.143433081061528E-009
   77.2706250000000         4.523093962206869E-009
   77.4843750000000         3.357910858220018E-009
   77.6981250000000         1.684969118526360E-009
   77.9118750000000        -3.951248464382245E-010
   78.1256250000000        -2.719024761764669E-009
   78.3393750000000        -5.068411696476238E-009
   78.5531250000000        -7.184960030526836E-009
   78.7668750000000        -8.791970479011964E-009
   78.9806250000000        -9.621349221846723E-009
   79.1943750000000        -9.443866527572356E-009
   79.4081250000000        -8.099964333685623E-009
   79.6218750000000        -5.527972693245410E-009
   79.8356250000000        -1.786360385759630E-009
   80.0493750000000         2.933148654587956E-009
   80.2631250000000         8.304330719881354E-009
   80.4768750000000         1.387894511267124E-008
   80.6906250000000         1.911369512447542E-008
   80.9043750000000         2.341102000510556E-008
   81.1181250000000         2.617158646538925E-008
   81.3318750000000         2.685487935397250E-008
   81.5456250000000         2.504295666429574E-008
   81.7593750000000         2.050142020137136E-008
   81.9731250000000         1.323113496973832E-008
   82.1868750000000         3.504206419855164E-009
   82.4006250000000        -8.121575905992669E-009
   82.6143750000000        -2.081433119927508E-008
   82.8281250000000        -3.350825165865454E-008
   83.0418750000000        -4.497244749750280E-008
   83.2556250000000        -5.390577173439344E-008
   83.4693750000000        -5.905206642264458E-008
   83.6831250000000        -5.932748703456350E-008
   83.8968750000000        -5.394931677487609E-008
   84.1106250000000        -4.255409706373788E-008
   84.3243750000000        -2.529228585118344E-008
   84.5381250000000        -2.887262997489675E-009
   84.7518750000000         2.335175390548751E-008
   84.9656250000000         5.157025639871758E-008
   85.1793750000000         7.946568881321647E-008
   85.3931250000000         1.044396935466935E-007
   85.6068750000000         1.237981875329806E-007
   85.8206250000000         1.349867299064160E-007
   86.0343750000000         1.358436677476160E-007
   86.2481250000000         1.248497457722509E-007
   86.4618750000000         1.013505390815392E-007
   86.6756250000000         6.572771020979046E-008
   86.8893750000000         1.949702576523741E-008
   87.1031250000000        -3.468481999552911E-008
   87.3168750000000        -9.311609344352378E-008
   87.5306250000000        -1.512520085958800E-007
   87.7443750000000        -2.040067213492652E-007
   87.9581250000000        -2.461393531976158E-007
   88.1718750000000        -2.726985036204009E-007
   88.3856250000000        -2.794915304664810E-007
   88.5993750000000        -2.635389552958646E-007
   88.8131250000000        -2.234714709753938E-007
   89.0268750000000        -1.598278005595180E-007
   89.2406250000000        -7.521642171965954E-008
   89.4543750000000         2.568726757941674E-008
   89.6681250000000         1.363246088960967E-007
   89.8818750000000         2.486197371587492E-007
   90.0956250000000         3.535132616309514E-007
   90.3093750000000         4.416324042625527E-007
   90.5231250000000         5.040513486057190E-007
   90.7368750000000         5.330833986667326E-007
   90.9506250000000         5.230386749564642E-007
   91.1643750000000         4.708785831176063E-007
   91.3781250000000         3.767018043665745E-007
   91.5918750000000         2.440063210163329E-007
   91.8056250000000         7.968743074450890E-008
   92.0193750000000        -1.062480446140140E-007
   92.2331250000000        -3.012477259832015E-007
   92.4468750000000        -4.910314761497113E-007
   92.6606250000000        -6.606089080700333E-007
   92.8743750000000        -7.954238470330530E-007
   93.0881250000000        -8.825376488315084E-007
   93.3018750000000        -9.117548712445384E-007
   93.5156250000000        -8.765945181284513E-007
   93.7293750000000        -7.750183705388857E-007
   93.9431250000000        -6.098444108641589E-007
   94.1568750000000        -3.887969529156619E-007
   94.3706250000000        -1.241738536129685E-007
   94.5843750000000         1.678571787600222E-007
   94.7981250000000         4.682895964528856E-007
   95.0118750000000         7.565640809921429E-007
   95.2256250000000         1.012014278116406E-006
   95.4393750000000         1.215361593933065E-006
   95.6531250000000         1.350142635370461E-006
   95.8668750000000         1.403957110470350E-006
   96.0806250000000         1.369438166189994E-006
   96.2943750000000         1.244869804952822E-006
   96.5081250000000         1.034405208312462E-006
   96.7218750000000         7.478728028459429E-007
   96.9356250000000         4.001904471231425E-007
   97.1493750000000         1.043915595807758E-008
   97.3631250000000        -3.993266743088138E-007
   97.5768750000000        -8.054378982177103E-007
   97.7906250000000        -1.184035112815187E-006
   98.0043750000000        -1.512457485526972E-006
   98.2181250000000        -1.770505133222664E-006
   98.4318750000000        -1.941502693982343E-006
   98.6456250000000        -2.013115451806971E-006
   98.8593750000000        -1.977895328962492E-006
   99.0731250000000        -1.833559217248232E-006
   99.2868750000000        -1.583023315960363E-006
   99.5006250000000        -1.234232101330413E-006
   99.7143750000000        -7.998274839962620E-007
   99.9281250000000        -2.967023585924577E-007
   100.141875000000         2.545264489356607E-007
   100.355625000000         8.301057531344458E-007
   100.569375000000         1.403792170768566E-006
   100.783125000000         1.947572698054649E-006
   100.996875000000         2.432489389605966E-006
   101.210625000000         2.829604496676290E-006
   101.424375000000         3.111139330290129E-006
   101.638125000000         3.251805912972535E-006
   101.851875000000         3.230325380177919E-006
   102.065625000000         3.031092795588587E-006
   102.279375000000         2.645908050192415E-006
   102.493125000000         2.075651467700463E-006
   102.706875000000         1.331746340344197E-006
   102.920625000000         4.372247859381219E-007
   103.134375000000        -5.727963803114483E-007
   103.348125000000        -1.651412220217661E-006
   103.561875000000        -2.741147065717826E-006
   103.775625000000        -3.776183541929408E-006
   103.989375000000        -4.685615252603500E-006
   104.203125000000        -5.397640301809137E-006
   104.416875000000        -5.844509441993446E-006
   104.630625000000        -5.967940251467905E-006
   104.844375000000        -5.724618103009280E-006
   105.058125000000        -5.091336632168156E-006
   105.271875000000        -4.069294910200501E-006
   105.485625000000        -2.687073397676448E-006
   105.699375000000        -1.001860712769401E-006
   105.913125000000         9.014008774651296E-007
   106.126875000000         2.913145182919834E-006
   106.340625000000         4.904608563095154E-006
   106.554375000000         6.735380295709338E-006
   106.768125000000         8.262703051515686E-006
   106.981875000000         9.351959985849630E-006
   107.195625000000         9.887624626301778E-006
   107.409375000000         9.783836162937400E-006
   107.623125000000         8.993710331631396E-006
   107.836875000000         7.516515051950041E-006
   108.050625000000         5.401934890795438E-006
   108.264375000000         2.750817413383776E-006
   108.478125000000        -2.879709882356097E-007
   108.691875000000        -3.524667273007419E-006
   108.905625000000        -6.739484424466907E-006
   109.119375000000        -9.696686800523440E-006
   109.333125000000        -1.216102119450454E-005
   109.546875000000        -1.391540525458618E-005
   109.760625000000        -1.477859531140050E-005
   109.974375000000        -1.462146718782426E-005
   110.188125000000        -1.338055900063489E-005
   110.401875000000        -1.106764898572395E-005
   110.615625000000        -7.774370016361000E-006
   110.829375000000        -3.671182720742592E-006
   111.043125000000         9.995799435579985E-007
   111.256875000000         5.936449792485502E-006
   111.470625000000         1.079675052862359E-005
   111.684375000000         1.521870176324868E-005
   111.898125000000         1.884632247132772E-005
   112.111875000000         2.135547911428489E-005
   112.325625000000         2.247925782003166E-005
   112.539375000000         2.203080163148792E-005
   112.753125000000         1.992184989407352E-005
   112.966875000000         1.617544401355274E-005
   113.180625000000         1.093160891308010E-005
   113.394375000000         4.445260521461862E-006
   113.608125000000        -2.923902935904105E-006
   113.821875000000        -1.072922859636842E-005
   114.035625000000        -1.846182377046165E-005
   114.249375000000        -2.558083319689030E-005
   114.463125000000        -3.154753660817663E-005
   114.676875000000        -3.586121110785447E-005
   114.890625000000        -3.809451516992531E-005
   115.104375000000        -3.792610209628185E-005
   115.318125000000        -3.516826473122826E-005
   115.531875000000        -2.978764521598087E-005
   115.745625000000        -2.191740046343018E-005
   115.959375000000        -1.185967531923965E-005
   116.173125000000        -7.777509555352194E-008
   116.386875000000         1.282198286072430E-005
   116.600625000000         2.611815482923513E-005
   116.814375000000         3.901062238266062E-005
   117.028125000000         5.066389930132141E-005
   117.241875000000         6.025512051446153E-005
   117.455625000000         6.702417940852439E-005
   117.669375000000         7.032324249322434E-005
   117.883125000000         6.966277129779859E-005
   118.096875000000         6.475123053172971E-005
   118.310625000000         5.552586234246065E-005
   118.524375000000         4.217225623434922E-005
   118.738125000000         2.513093322358264E-005
   118.951875000000         5.089774667579736E-006
   119.165625000000        -1.703816234739758E-005
   119.379375000000        -4.015111999001360E-005
   119.593125000000        -6.300826695743794E-005
   119.806875000000        -8.429053193988810E-005
   120.020625000000        -1.026699406449568E-004
   120.234375000000        -1.168840945615266E-004
   120.448125000000        -1.258119129662084E-004
   120.661875000000        -1.285464267187744E-004
   120.875625000000        -1.244602976277397E-004
   121.089375000000        -1.132598652614473E-004
   121.303125000000        -9.502390583645042E-005
   121.516875000000        -7.022392224510844E-005
   121.730625000000        -3.972365102355681E-005
   121.944375000000        -4.756535024376683E-006
   122.158125000000         3.311888216414466E-005
   122.371875000000         7.208439781073818E-005
   122.585625000000         1.101458959008429E-004
   122.799375000000         1.452316539261700E-004
   123.013125000000         1.753004147230547E-004
   123.226875000000         1.984536098417251E-004
   123.440625000000         2.130456022703519E-004
   123.654375000000         2.177856442689534E-004
   123.868125000000         2.118254470593802E-004