  -1.60312500000000        -6.593216171684230E-025
  -1.38937500000000         1.017022115810249E-022
  -1.17562500000000         1.120275314015879E-021
 -0.961875000000000         7.203972014017284E-021
 -0.748125000000000         3.519442119850132E-020
 -0.534375000000000         1.423031406225897E-019
 -0.320625000000000         4.950320587558127E-019
 -0.106875000000000         1.514750466458069E-018
  0.106875000000000         4.139488796483975E-018
  0.320625000000000         1.022856581896851E-017
  0.534375000000000         2.309994477794764E-017
  0.748125000000000         4.813924023793209E-017
  0.961875000000000         9.337293371033222E-017
   1.17562500000000         1.698733874742961E-016
   1.38937500000000         2.918581996932743E-016
   1.60312500000000         4.764037445225317E-016
   1.81687500000000         7.427316791141448E-016
   2.03062500000000         1.111065232633756E-015
   2.24437500000000         1.601169878013838E-015
   2.45812500000000         2.230702512549232E-015
   2.67187500000000         3.013516315309722E-015
   2.88562500000000         3.958176640583107E-015
   3.09937500000000         5.066845517408664E-015
   3.31312500000000         6.334687773322311E-015
   3.52687500000000         7.749923402985835E-015
   3.74062500000000         9.294566062987720E-015
   3.95437500000000         1.094572399424594E-014
   4.16812500000000         1.267729170340535E-014
   4.38187500000000         1.446195929344512E-014
   4.59562500000000         1.627316788789478E-014
   4.80937500000000         1.808677912120684E-014
   5.02312500000000         1.988231230485581E-014
   5.23687500000000         2.164360987042405E-014
   5.45062500000000         2.335891600362971E-014
   5.66437500000000         2.502039888613139E-014
   5.87812500000000         2.662347408472482E-014
   6.09187500000000         2.816598973340921E-014
   6.30562500000000         2.964754735504063E-014
   6.51937500000000         3.106931374821019E-014
   6.73312500000000         3.243431683185022E-014
   6.94687500000000         3.374814734713807E-014
   7.16062500000000         3.502002477459633E-014
   7.37437500000000         3.626405113461680E-014
   7.58812500000000         3.750015613995637E-014
   7.80187500000000         3.875441641822007E-014
   8.01562500000000         4.005858174277919E-014
   8.22937500000000         4.144863380417937E-014
   8.44312500000000         4.296231057721059E-014
   8.65687500000000         4.463592814880661E-014
   8.87062500000000         4.650085245229479E-014
   9.08437500000000         4.858004595618174E-014
   9.29812500000000         5.088524880706554E-014
   9.51187500000000         5.341527665243523E-014
   9.72562500000000         5.615565178796895E-014
   9.93937500000000         5.907975636981411E-014
   10.1531250000000         6.215137462890509E-014
   10.3668750000000         6.532818684758373E-014
   10.5806250000000         6.856582961246318E-014
   10.7943750000000         7.182186187255459E-014
   11.0081250000000         7.505910710750039E-014
   11.2218750000000         7.824792669165769E-014
   11.4356250000000         8.136719081773136E-014
   11.6493750000000         8.440401086480433E-014
   11.8631250000000         8.735241402745087E-014
   12.0768750000000         9.021139139723362E-014
   12.2906250000000         9.298290934761841E-014
   12.5043750000000         9.567033786265776E-014
   12.7181250000000         9.827769799033683E-014
   12.9318750000000         1.008099798920739E-013
   13.1456250000000         1.032743846566204E-013
   13.3593750000000         1.056821705863211E-013
   13.5731250000000         1.080506978501771E-013
   13.7868750000000         1.104050341291824E-013
   14.0006250000000         1.127785822409886E-013
   14.2143750000000         1.152123513740238E-013
   14.4281250000000         1.177526802548204E-013
   14.6418750000000         1.204476495976785E-013
   14.8556250000000         1.233425601637049E-013
   15.0693750000000         1.264751129471608E-013
   15.2831250000000         1.298710882272501E-013
   15.4968750000000         1.335412402740737E-013
   15.7106250000000         1.374799777706379E-013
   15.9243750000000         1.416660937749975E-013
   16.1381250000000         1.460655160003013E-013
   16.3518750000000         1.506357666829420E-013
   16.5656250000000         1.553314006846796E-013
   16.7793750000000         1.601095948073265E-013
   16.9931250000000         1.649350550752064E-013
   17.2068750000000         1.697834232839004E-013
   17.4206250000000         1.746427975099512E-013
   17.6343750000000         1.795130940685694E-013
   17.8481250000000         1.844034129630899E-013
   18.0618750000000         1.893280374404201E-013
   18.2756250000000         1.943016887503919E-013
   18.4893750000000         1.993350126961166E-013
   18.7031250000000         2.044310236561513E-013
   18.9168750000000         2.095831783279861E-013
   19.1306250000000         2.147754049484484E-013
   19.3443750000000         2.199840981670894E-013
   19.5581250000000         2.251817695613995E-013
   19.7718750000000         2.303416367220554E-013
   19.9856250000000         2.354425400493723E-013
   20.1993750000000         2.404732771918816E-013
   20.4131250000000         2.454356642550841E-013
   20.6268750000000         2.503458717440391E-013
   20.8406250000000         2.552338323460133E-013
   21.0543750000000         2.601407511908730E-013
   21.2681250000000         2.651151687614971E-013
   21.4818750000000         2.702081890353960E-013
   21.6956250000000         2.754685039030706E-013
   21.9093750000000         2.809379706005006E-013
   22.1231250000000         2.866483185398660E-013
   22.3368750000000         2.926193644021525E-013
   22.5506250000000         2.988588361674760E-013
   22.7643750000000         3.053637361861452E-013
   22.9781250000000         3.121228824559370E-013
   23.1918750000000         3.191200696564560E-013
   23.4056250000000         3.263373737830533E-013
   23.6193750000000         3.337580134908777E-013
   23.8331250000000         3.413682962244071E-013
   24.0468750000000         3.491584761215696E-013
   24.2606250000000         3.571224858848193E-013
   24.4743750000000         3.652566469440133E-013
   24.6881250000000         3.735577524253220E-013
   24.9018750000000         3.820209293633549E-013
   25.1156250000000         3.906378163678263E-013
   25.3293750000000         3.993954448275076E-013
   25.5431250000000         4.082761224479686E-013
   25.7568750000000         4.172584467677077E-013
   25.9706250000000         4.263193775709164E-013
   26.1843750000000         4.354371150924656E-013
   26.3981250000000         4.445944097988535E-013
   26.6118750000000         4.537817925052983E-013
   26.8256250000000         4.630001265815954E-013
   27.0393750000000         4.722622003547144E-013
   27.2531250000000         4.815929475818409E-013
   27.4668750000000         4.910281421385279E-013
   27.6806250000000         5.006117157470636E-013
   27.8943750000000         5.103919427184120E-013
   28.1081250000000         5.204169503714469E-013
   28.3218750000000         5.307301613206791E-013
   28.5356250000000         5.413661393191576E-013
   28.7493750000000         5.523473678210345E-013
   28.9631250000000         5.636824269045494E-013
   29.1768750000000         5.753656633585159E-013
   29.3906250000000         5.873783213614087E-013
   29.6043750000000         5.996909794519217E-013
   29.8181250000000         6.122668526358843E-013
   30.0318750000000         6.250654574903517E-013
   30.2456250000000         6.380461797167922E-013
   30.4593750000000         6.511712577768666E-013
   30.6731250000000         6.644078389619185E-013
   30.8868750000000         6.777289801549981E-013
   31.1006250000000         6.911135627716242E-013
   31.3143750000000         7.045453265727336E-013
   31.5281250000000         7.180113623724365E-013
   31.7418750000000         7.315004433112927E-013
   31.9556250000000         7.450015634385748E-013
   32.1693750000000         7.585030663811734E-013
   32.3831250000000         7.719925712000897E-013
   32.5968750000000         7.854577568989242E-013
   32.8106250000000         7.988879098761848E-013
   33.0243750000000         8.122759526663336E-013
   33.2381250000000         8.256206656429455E-013
   33.4518750000000         8.389286569076219E-013
   33.6656250000000         8.522156866790374E-013
   33.8793750000000         8.655070699436347E-013
   34.0931250000000         8.788369353705941E-013
   34.3068750000000         8.922463769164317E-013
   34.5206250000000         9.057806542129083E-013
   34.7343750000000         9.194857215667038E-013
   34.9481250000000         9.334045683518043E-013
   35.1618750000000         9.475738182315637E-013
   35.3756250000000         9.620210425718278E-013
   35.5893750000000         9.767632290666976E-013
   35.8031250000000         9.918065986021250E-013
   36.0168750000000         1.007147810604493E-012
   36.2306250000000         1.022776466572143E-012
   36.4443750000000         1.038678505214197E-012
   36.6581250000000         1.054839999339716E-012
   36.8718750000000         1.071250833438415E-012
   37.0856250000000         1.087907600369816E-012
   37.2993750000000         1.104815229805981E-012
   37.5131250000000         1.121987050481978E-012
   37.7268750000000         1.139443226660247E-012
   37.9406250000000         1.157207669844919E-012
   38.1543750000000         1.175303868010734E-012
   38.3681250000000         1.193750288934505E-012
   38.5818750000000         1.212556148918818E-012
   38.7956250000000         1.231718174259060E-012
   39.0093750000000         1.251219018367599E-012
   39.2231250000000         1.271027858727917E-012
   39.4368750000000         1.291102973021946E-012
   39.6506250000000         1.311396203162904E-012
   39.8643750000000         1.331858700258109E-012
   40.0781250000000         1.352447068207798E-012
   40.2918750000000         1.373129050785825E-012
   40.5056250000000         1.393887842556115E-012
   40.7193750000000         1.414724387937152E-012
   40.9331250000000         1.435657260494257E-012
   41.1468750000000         1.456720231134041E-012
   41.3606250000000         1.477957858960345E-012
   41.5743750000000         1.499419866198414E-012
   41.7881250000000         1.521155313862803E-012
   42.0018750000000         1.543207403497065E-012
   42.2156250000000         1.565609813242153E-012
   42.4293750000000         1.588385023925624E-012
   42.6431250000000         1.611544746560506E-012
   42.8568750000000         1.635092083400743E-012
   43.0706250000000         1.659024709490653E-012
   43.2843750000000         1.683338173750643E-012
   43.4981250000000         1.708028335726781E-012
   43.7118750000000         1.733092241597991E-012
   43.9256250000000         1.758526922228442E-012
   44.1393750000000         1.784326376939842E-012
   44.3531250000000         1.810477311117798E-012
   44.5668750000000         1.836954667726190E-012
   44.7806250000000         1.863718356037182E-012
   44.9943750000000         1.890712351707564E-012
   45.2081250000000         1.917867166911640E-012
   45.4218750000000         1.945106102774710E-012
   45.6356250000000         1.972354856982836E-012
   45.8493750000000         1.999553288286914E-012
   46.0631250000000         2.026667432701153E-012
   46.2768750000000         2.053699416966850E-012
   46.4906250000000         2.080692897805085E-012
   46.7043750000000         2.107731932492580E-012
   46.9181250000000         2.134932123361297E-012
   47.1318750000000         2.162424164069741E-012
   47.3456250000000         2.190331205076750E-012
   47.5593750000000         2.218742947969400E-012
   47.7731250000000         2.247690446313188E-012
   47.9868750000000         2.277126337853671E-012
   48.2006250000000         2.306915110891177E-012
   48.4143750000000         2.336837130707564E-012
   48.6281250000000         2.366608649881253E-012
   48.8418750000000         2.395917630384976E-012
   49.0556250000000         2.424472700034439E-012
   49.2693750000000         2.452059821062899E-012
   49.4831250000000         2.478599097962682E-012
   49.6968750000000         2.504192559544946E-012
   49.9106250000000         2.529153600045217E-012
   50.1243750000000         2.554009868831565E-012
   50.3381250000000         2.579473797608949E-012
   50.5518750000000         2.606378828131394E-012
   50.7656250000000         2.635584225686710E-012
   50.9793750000000         2.667856528587229E-012
   51.1931250000000         2.703740562314691E-012
   51.4068750000000         2.743436824457469E-012
   51.6206250000000         2.786704133739259E-012
   51.8343750000000         2.832806331981528E-012
   52.0481250000000         2.880518786181628E-012
   52.2618750000000         2.928204813715398E-012
   52.4756250000000         2.973964066982515E-012
   52.6893750000000         3.015845090617060E-012
   52.9031250000000         3.052103991485312E-012
   53.1168750000000         3.081481664922769E-012
   53.3306250000000         3.103464349406499E-012
   53.5443750000000         3.118488715100449E-012
   53.7581250000000         3.128053694100979E-012
   53.9718750000000         3.134707342988168E-012
   54.1856250000000         3.141889085049741E-012
   54.3993750000000         3.153623956555502E-012
   54.6131250000000         3.174084993446848E-012
   54.8268750000000         3.207060740187801E-012
   55.0406250000000         3.255383737657391E-012
   55.2543750000000         3.320390417247129E-012
   55.4681250000000         3.401489985123839E-012
   55.6818750000000         3.495917957516795E-012
   55.8956250000000         3.598737523599868E-012
   56.1093750000000         3.703128546488551E-012
   56.3231250000000         3.800972036363982E-012
   56.5368750000000         3.883699979835867E-012
   56.7506250000000         3.943340175545881E-012
   56.9643750000000         3.973649003136443E-012
   57.1781250000000         3.971197117544568E-012
   57.3918750000000         3.936258539861767E-012
   57.6056250000000         3.873356930167007E-012
   57.8193750000000         3.791345956704780E-012
   58.0331250000000         3.702943361469725E-012
   58.2468750000000         3.623697529138393E-012
   58.4606250000000         3.570436324216239E-012
   58.6743750000000         3.559322141462355E-012
   58.8881250000000         3.603705708938719E-012
   59.1018750000000         3.712024373646984E-012
   59.3156250000000         3.886019283587758E-012
   59.5293750000000         4.119543260646308E-012
   59.7431250000000         4.398192932406706E-012
   59.9568750000000         4.699925673487447E-012
   60.1706250000000         4.996718428327257E-012
   60.3843750000000         5.257201467613472E-012
   60.5981250000000         5.450068105052343E-012
   60.8118750000000         5.547937825920216E-012
   61.0256250000000         5.531251692910180E-012
   61.2393750000000         5.391720621928886E-012
   61.4531250000000         5.134841598454592E-012
   61.6668750000000         4.781051938753202E-012
   61.8806250000000         4.365206309027638E-012
   62.0943750000000         3.934229014755663E-012
   62.3081250000000         3.543001163713960E-012
   62.5218750000000         3.248765664665383E-012
   62.7356250000000         3.104548821656865E-012
   62.9493750000000         3.152277165709534E-012
   63.1631250000000         3.416386040023276E-012
   63.3768750000000         3.898750923442745E-012
   63.5906250000000         4.575710047377507E-012
   63.8043750000000         5.397784514806547E-012
   64.0181250000000         6.292447501196052E-012
   64.2318750000000         7.169969196816546E-012
   64.4456250000000         7.931998888293348E-012
   64.6593750000000         8.482179991144960E-012
   64.8731250000000         8.737771777740418E-012
   65.0868750000000         8.641014723020607E-012
   65.3006250000000         8.168863765734004E-012
   65.5143750000000         7.339750869573629E-012
   65.7281250000000         6.216236596432213E-012
   65.9418750000000         4.902764786895374E-012
   66.1556250000000         3.538220011781976E-012
   66.3693750000000         2.283561196199057E-012
   66.5831250000000         1.305410657554387E-012
   66.7968750000000         7.570488621380762E-013
   67.0106250000000         7.587319015458293E-013
   67.2243750000000         1.379547305541470E-012
   67.4381250000000         2.623101674957128E-012
   67.6518750000000         4.419158150402538E-012
   67.8656250000000         6.622905862019565E-012
   68.0793750000000         9.022867790493327E-012
   68.2931250000000         1.135758666936735E-011
   68.5068750000000         1.334024804410637E-011
   68.7206250000000         1.468939994126066E-011
   68.9343750000000         1.516301805000104E-011
   69.1481250000000         1.459245484721848E-011
   69.3618750000000         1.291239823898571E-011
   69.5756250000000         1.018292993922371E-011
   69.7893750000000         6.600160842883382E-012
   70.0031250000000         2.492735844377801E-012
   70.2168750000000        -1.697292863888942E-012
   70.4306250000000        -5.449212757918678E-012
   70.6443750000000        -8.212311465848923E-012
   70.8581250000000        -9.465021412182739E-012
   71.0718750000000        -8.779546384358122E-012
   71.2856250000000        -5.885722321574167E-012
   71.4993750000000        -7.271126839076132E-013
   71.7131250000000         6.497786321282561E-012
   71.9268750000000         1.531576747989744E-011
   72.1406250000000         2.498577250570466E-011
   72.3543750000000         3.453558225759928E-011
   72.5681250000000         4.282893270289214E-011
   72.7818750000000         4.866066254596356E-011
   72.9956250000000         5.087435744105952E-011
   73.2093750000000         4.849394551261519E-011
   73.4231250000000         4.085812108565868E-011
   73.6368750000000         2.774462237646189E-011
   73.8506250000000         9.470525863879508E-012
   74.0643750000000        -1.304495414575390E-011
   74.2781250000000        -3.826704248983896E-011
   74.4918750000000        -6.409028943247120E-011
   74.7056250000000        -8.794653222102038E-011
   74.9193750000000        -1.069755327675374E-010
   75.1331250000000        -1.182520590688671E-010
   75.3468750000000        -1.190571035342565E-010
   75.5606250000000        -1.071751138404798E-010
   75.7743750000000        -8.119408815302473E-011
   75.9881250000000        -4.078169114892389E-011
   76.2018750000000         1.309132940447877E-011
   76.4156250000000         7.800880183932248E-011
   76.6293750000000         1.500734091018944E-010
   76.8431250000000         2.239977087699140E-010
   77.0568750000000         2.933341047589624E-010
   77.2706250000000         3.508458935377371E-010
   77.4843750000000         3.890097776882342E-010
   77.6981250000000         4.006276034594291E-010
   77.9118750000000         3.795124494998011E-010
   78.1256250000000         3.212026070855033E-010
   78.3393750000000         2.236475440778458E-010
   78.5531250000000         8.780371381553094E-011
   78.7668750000000        -8.192397399846464E-011
   78.9806250000000        -2.774562904272094E-010
   79.1943750000000        -4.870823524770820E-010
   79.4081250000000        -6.958098401868422E-010
   79.6218750000000        -8.860426691181687E-010
   79.8356250000000        -1.038582466950565E-009
   80.0493750000000        -1.133923474860372E-009
   80.2631250000000        -1.153782287146780E-009
   80.4768750000000        -1.082776211462041E-009
   80.6906250000000        -9.101392728876978E-010
   80.9043750000000        -6.313453836061903E-010
   81.1181250000000        -2.494962502854357E-010
   81.3318750000000         2.236708048900232E-010
   81.5456250000000         7.672912654828065E-010
   81.7593750000000         1.351513680415675E-009
   81.9731250000000         1.938354912628414E-009
   82.1868750000000         2.483310147900093E-009
   82.4006250000000         2.937705062804760E-009
   82.6143750000000         3.251719077044514E-009
   82.8281250000000         3.377947778052718E-009
   83.0418750000000         3.275313787450260E-009
   83.2556250000000         2.913083297221163E-009
   83.4693750000000         2.274705046074419E-009
   83.6831250000000         1.361164114087819E-009
   83.8968750000000         1.935383619696300E-010
   84.1106250000000        -1.185536669646807E-009
   84.3243750000000        -2.711746755625112E-009
   84.5381250000000        -4.300508899021606E-009
   84.7518750000000        -5.850012478286233E-009
   84.9656250000000        -7.245887799720845E-009
   85.1793750000000        -8.367382263634549E-009
   85.3931250000000        -9.094803642405103E-009
   85.6068750000000        -9.317872634987320E-009
   85.8206250000000        -8.944521599703641E-009
   86.0343750000000        -7.909591861623286E-009
   86.2481250000000        -6.182826298086768E-009
   86.4618750000000        -3.775533818282110E-009
   86.6756250000000        -7.453228108208032E-010
   86.8893750000000         2.801635782944598E-009
   87.1031250000000         6.711248569222842E-009
   87.3168750000000         1.078532940676064E-008
   87.5306250000000         1.478872509028782E-008
   87.7443750000000         1.845963861194192E-008
   87.9581250000000         2.152283353521542E-008
   88.1718750000000         2.370518497152206E-008
   88.3856250000000         2.475283907207358E-008
   88.5993750000000         2.444906853544943E-008
   88.8131250000000         2.263178036084947E-008
   89.0268750000000         1.920955621227090E-008
   89.2406250000000         1.417509488093712E-008
   89.4543750000000         7.614986487530795E-009
   89.6681250000000        -2.851189148649452E-010
   89.8818750000000        -9.240682635160296E-009
   90.0956250000000        -1.887425744729150E-008
   90.3093750000000        -2.872743003990251E-008
   90.5231250000000        -3.827853055614784E-008
   90.7368750000000        -4.696555170600242E-008
   90.9506250000000        -5.421336644408405E-008
   91.1643750000000        -5.946401166610190E-008
   91.3781250000000        -6.220853839474920E-008
   91.5918750000000        -6.201873695591503E-008
   91.8056250000000        -5.857694546314952E-008
   92.0193750000000        -5.170215324414198E-008
   92.2331250000000        -4.137072319466642E-008
   92.4468750000000        -2.773027706434664E-008
   92.6606250000000        -1.110560678901663E-008
   92.8743750000000         8.004122382926217E-009
   93.0881250000000         2.893714690730652E-008
   93.3018750000000         5.088962894677020E-008
   93.5156250000000         7.294419665371539E-008
   93.7293750000000         9.410529181297487E-008
   93.9431250000000         1.133396981357253E-007
   94.1568750000000         1.296202923398828E-007
   94.3706250000000         1.419708388833408E-007
   94.5843750000000         1.495095543570921E-007
   94.7981250000000         1.514892075410455E-007
   95.0118750000000         1.473316955559765E-007
   95.2256250000000         1.366553359498735E-007
   95.4393750000000         1.192935209305327E-007
   95.6531250000000         9.530386786827440E-008
   95.8668750000000         6.496753847143343E-008
   96.0806250000000         2.877895290472002E-008
   96.2943750000000        -1.257334140166775E-008
   96.5081250000000        -5.823340805622752E-008
   96.7218750000000        -1.072106363744113E-007
   96.9356250000000        -1.584165199083835E-007
   97.1493750000000        -2.107034325667503E-007
   97.3631250000000        -2.629033185456060E-007
   97.5768750000000        -3.138643298569672E-007
   97.7906250000000        -3.624836873542956E-007
   98.0043750000000        -4.077353887586363E-007
   98.2181250000000        -4.486918140907131E-007
   98.4318750000000        -4.845387536824261E-007
   98.6456250000000        -5.145838721511016E-007
   98.8593750000000        -5.382590883924286E-007
   99.0731250000000        -5.551177636905448E-007
   99.2868750000000        -5.648279185392951E-007
   99.5006250000000        -5.671629209471314E-007
   99.7143750000000        -5.619911897685347E-007
   99.9281250000000        -5.492664295424580E-007
   100.141875000000        -5.290197610653682E-007
   100.355625000000        -5.013548459832711E-007
   100.569375000000        -4.664467436167970E-007
   100.783125000000        -4.245448103503887E-007
   100.996875000000        -3.759794875404335E-007
   101.210625000000        -3.211723573012021E-007
   101.424375000000        -2.606484116899577E-007
   101.638125000000        -1.950491131425627E-007
   101.851875000000        -1.251445521483686E-007
   102.065625000000        -5.184285600175310E-008
   102.279375000000         2.380501343848596E-008
   102.493125000000         1.006068067536059E-007
   102.706875000000         1.772383413250117E-007
   102.920625000000         2.522617223401288E-007
   103.134375000000         3.241529741167748E-007
   103.348125000000         3.913390254008315E-007
   103.561875000000         4.522433424602811E-007
   103.775625000000         5.053388435520872E-007
   103.989375000000         5.492060996869042E-007
   104.203125000000         5.825942717624768E-007
   104.416875000000         6.044817929543098E-007
   104.630625000000         6.141335128101422E-007
   104.844375000000         6.111509037534761E-007
   105.058125000000         5.955120105157755E-007
   105.271875000000         5.675981065710034E-007
   105.485625000000         5.282045054300762E-007
   105.699375000000         4.785336430506204E-007
   105.913125000000         4.201693731637722E-007
   106.126875000000         3.550323616664684E-007
   106.340625000000         2.853174817663425E-007
   106.554375000000         2.134151436907526E-007
   106.768125000000         1.418194826778270E-007
   106.981875000000         7.302721685050308E-008
   107.195625000000         9.431715096050681E-009
   107.409375000000        -4.678266711683507E-008
   107.623125000000        -9.374066091828740E-008
   107.836875000000        -1.299652602204221E-007
   108.050625000000        -1.544510087765669E-007
   108.264375000000        -1.667170145549668E-007
   108.478125000000        -1.668361914809231E-007
   108.691875000000        -1.554383502478777E-007
   108.905625000000        -1.336860664346956E-007
   109.119375000000        -1.032236786713209E-007
   109.333125000000        -6.610123471873449E-008
   109.546875000000        -2.467662549834984E-008
   109.760625000000         1.849955861092970E-008
   109.974375000000         6.081082956709237E-008
   110.188125000000         9.970683749930775E-008
   110.401875000000         1.328337509069169E-007
   110.615625000000         1.581560042288724E-007
   110.829375000000         1.740627446363895E-007
   111.043125000000         1.794530091110571E-007
   111.256875000000         1.737947224310114E-007
   111.470625000000         1.571539734283019E-007
   111.684375000000         1.301926271047656E-007
   111.898125000000         9.413407377117053E-008
   112.111875000000         5.069870207043255E-008
   112.325625000000         2.012404450113667E-009
   112.539375000000        -4.950702290245244E-008
   112.753125000000        -1.012794341248283E-007
   112.966875000000        -1.507007453614799E-007
   113.180625000000        -1.952825679374257E-007
   113.394375000000        -2.327853282091571E-007
   113.608125000000        -2.613374905830919E-007
   113.821875000000        -2.795342826477626E-007
   114.035625000000        -2.865104894318715E-007
   114.249375000000        -2.819833680845317E-007
   114.463125000000        -2.662634459547336E-007
   114.676875000000        -2.402328015551361E-007
   114.890625000000        -2.052922794504501E-007
   115.104375000000        -1.632808466700023E-007
   115.318125000000        -1.163718563809592E-007
   115.531875000000        -6.695225381427319E-008
   115.745625000000        -1.749166773914467E-008
   115.959375000000         2.959117139323249E-008
   116.173125000000         7.205718250760016E-008
   116.386875000000         1.079637199625953E-007
   116.600625000000         1.357630357883240E-007
   116.814375000000         1.543771892004849E-007
   117.028125000000         1.632455881051034E-007
   117.241875000000         1.623429584836293E-007
   117.455625000000         1.521672502265374E-007
   117.669375000000         1.336987020036825E-007
   117.883125000000         1.083329047393944E-007
   118.096875000000         7.779213220767304E-008
   118.310625000000         4.402036960669424E-008
   118.524375000000         9.068304756406796E-009
   118.738125000000        -2.502499040236802E-008
   118.951875000000        -5.634688848611923E-008
   119.165625000000        -8.321606332340767E-008
   119.379375000000        -1.042715748814328E-007
   119.593125000000        -1.185413861934056E-007
   119.806875000000        -1.254867786807714E-007
   120.020625000000        -1.250205786651500E-007
   120.234375000000        -1.174986531021517E-007
   120.448125000000        -1.036856871721674E-007
   120.661875000000        -8.469773133041682E-008
   120.875625000000        -6.192531718369680E-008
   121.089375000000        -3.694201662447142E-008
   121.303125000000        -1.140409763962926E-008
   121.516875000000         1.305262887344419E-008
   121.730625000000         3.491259644002026E-008
   121.944375000000         5.287101103279245E-008
   122.158125000000         6.590985025585850E-008
   122.371875000000         7.335499158564473E-008
   122.585625000000         7.491130207695489E-008
   122.799375000000         7.067387300167851E-008
   123.013125000000         6.111502995992036E-008
   123.226875000000         4.704820623185782E-008
   123.440625000000         2.957114835355988E-008
   123.654375000000         9.992146660564727E-009
   123.868125000000        -1.025602208508831E-008