  -1.60312500000000        -1.506791921505177E-018
  -1.38937500000000        -1.514243922285479E-018
  -1.17562500000000         2.252241656433385E-019
 -0.961875000000000         1.455337280961237E-017
 -0.748125000000000         9.047603822491414E-017
 -0.534375000000000         4.089251515129491E-016
 -0.320625000000000         1.530477989324904E-015
 -0.106875000000000         4.934945914941211E-015
  0.106875000000000         1.399837016688160E-014
  0.320625000000000         3.548518017489259E-014
  0.534375000000000         8.150317007788307E-014
  0.748125000000000         1.717589312945931E-013
  0.961875000000000         3.358920659228059E-013
   1.17562500000000         6.156236642735384E-013
   1.38937500000000         1.066423617523175E-012
   1.60312500000000         1.758256483090408E-012
   1.81687500000000         2.774925210918352E-012
   2.03062500000000         4.211564700143829E-012
   2.24437500000000         6.169873186935850E-012
   2.45812500000000         8.750999756795991E-012
   2.67187500000000         1.204619123447316E-011
   2.88562500000000         1.612577401836198E-011
   3.09937500000000         2.102729820146233E-011
   3.31312500000000         2.674397314279529E-011
   3.52687500000000         3.321476602575578E-011
   3.74062500000000         4.031729147954310E-011
   3.95437500000000         4.786470285592182E-011
   4.16812500000000         5.560706168675651E-011
   4.38187500000000         6.323747296938579E-011
   4.59562500000000         7.040216692979682E-011
   4.80937500000000         7.671366418081730E-011
   5.02312500000000         8.176516540871083E-011
   5.23687500000000         8.514446247758934E-011
   5.45062500000000         8.644561791316796E-011
   5.66437500000000         8.527721261914114E-011
   5.87812500000000         8.126650063846819E-011
   6.09187500000000         7.405983248463963E-011
   6.30562500000000         6.332049700372418E-011
   6.51937500000000         4.872586171976381E-011
   6.73312500000000         2.996614662372105E-011
   6.94687500000000         6.747008122887355E-012
   7.16062500000000        -2.120241766970156E-011
   7.37437500000000        -5.411529204558741E-011
   7.58812500000000        -9.216727550943072E-011
   7.80187500000000        -1.354530567741612E-010
   8.01562500000000        -1.839621561264049E-010
   8.22937500000000        -2.375578147657387E-010
   8.44312500000000        -2.959628014665558E-010
   8.65687500000000        -3.587551553661363E-010
   8.87062500000000        -4.253759622917519E-010
   9.08437500000000        -4.951492251178793E-010
   9.29812500000000        -5.673122007090316E-010
   9.51187500000000        -6.410526666611310E-010
   9.72562500000000        -7.155483229202910E-010
   9.93937500000000        -7.900033086275985E-010
   10.1531250000000        -8.636767901924544E-010
   10.3668750000000        -9.359000047029180E-010
   10.5806250000000        -1.006080198788795E-009
   10.7943750000000        -1.073691820589551E-009
   11.0081250000000        -1.138257742728524E-009
   11.2218750000000        -1.199324788636206E-009
   11.4356250000000        -1.256438891142795E-009
   11.6493750000000        -1.309124953326675E-009
   11.8631250000000        -1.356875390681076E-009
   12.0768750000000        -1.399149645093657E-009
   12.2906250000000        -1.435384318246162E-009
   12.5043750000000        -1.465011571422086E-009
   12.7181250000000        -1.487481634769007E-009
   12.9318750000000        -1.502283890079136E-009
   13.1456250000000        -1.508961536036351E-009
   13.3593750000000        -1.507115728434564E-009
   13.5731250000000        -1.496397040121891E-009
   13.7868750000000        -1.476484744438542E-009
   14.0006250000000        -1.447056503798773E-009
   14.2143750000000        -1.407753671087923E-009
   14.4281250000000        -1.358147933846965E-009
   14.6418750000000        -1.297715368242113E-009
   14.8556250000000        -1.225823053274341E-009
   15.0693750000000        -1.141731260752356E-009
   15.2831250000000        -1.044611599503197E-009
   15.4968750000000        -9.335792212587727E-010
   15.7106250000000        -8.077347489380102E-010
   15.9243750000000        -6.662102466418359E-010
   16.1381250000000        -5.082130741926570E-010
   16.3518750000000        -3.330622780403433E-010
   16.5656250000000        -1.402131649304139E-010
   16.7793750000000         7.073154443940582E-011
   16.9931250000000         3.000240124641785E-010
   17.2068750000000         5.477849154436664E-010
   17.4206250000000         8.140247804940167E-010
   17.6343750000000         1.098669183310678E-009
   17.8481250000000         1.401583966186093E-009
   18.0618750000000         1.722597427120383E-009
   18.2756250000000         2.061518028574045E-009
   18.4893750000000         2.418147123862550E-009
   18.7031250000000         2.792287540105241E-009
   18.9168750000000         3.183749621746973E-009
   19.1306250000000         3.592356166340000E-009
   19.3443750000000         4.017947889082112E-009
   19.5581250000000         4.460390008633624E-009
   19.7718750000000         4.919580011358257E-009
   19.9856250000000         5.395456293903712E-009
   20.1993750000000         5.888006492202299E-009
   20.4131250000000         6.397274988136014E-009
   20.6268750000000         6.923368889124934E-009
   20.8406250000000         7.466462534907011E-009
   21.0543750000000         8.026801038121673E-009
   21.2681250000000         8.604703570940518E-009
   21.4818750000000         9.200566989645904E-009
   21.6956250000000         9.814870319564253E-009
   21.9093750000000         1.044817956208042E-008
   22.1231250000000         1.110115171120255E-008
   22.3368750000000         1.177453610577921E-008
   22.5506250000000         1.246917104559591E-008
   22.7643750000000         1.318597374684268E-008
   22.9781250000000         1.392592246792850E-008
   23.1918750000000         1.469003101601186E-008
   23.4056250000000         1.547931737150365E-008
   23.6193750000000         1.629476964816063E-008
   23.8331250000000         1.713731366392290E-008
   24.0468750000000         1.800778703036719E-008
   24.2606250000000         1.890692404540055E-008
   24.4743750000000         1.983535454586313E-008
   24.6881250000000         2.079361785513045E-008
   24.9018750000000         2.178219065500969E-008
   25.1156250000000         2.280152530967602E-008
   25.3293750000000         2.385209354932346E-008
   25.5431250000000         2.493442935069044E-008
   25.7568750000000         2.604916507083553E-008
   25.9706250000000         2.719705612215511E-008
   26.1843750000000         2.837899154730776E-008
   26.3981250000000         2.959599031481279E-008
   26.6118750000000         3.084918555208699E-008
   26.8256250000000         3.213980119851791E-008
   27.0393750000000         3.346912643936030E-008
   27.2531250000000         3.483849316856522E-008
   27.4668750000000         3.624926085111923E-008
   27.6806250000000         3.770281108399989E-008
   27.8943750000000         3.920055155039325E-008
   28.1081250000000         4.074392667698980E-008
   28.3218750000000         4.233443069437420E-008
   28.5356250000000         4.397361742440774E-008
   28.7493750000000         4.566310155563440E-008
   28.9631250000000         4.740454740671413E-008
   29.1768750000000         4.919964363134038E-008
   29.3906250000000         5.105006479270733E-008
   29.6043750000000         5.295742365863621E-008
   29.8181250000000         5.492322006157240E-008
   30.0318750000000         5.694879376168352E-008
   30.2456250000000         5.903528825840266E-008
   30.4593750000000         6.118363183303780E-008
   30.6731250000000         6.339453940997600E-008
   30.8868750000000         6.566853611608468E-008
   31.1006250000000         6.800600023613167E-008
   31.3143750000000         7.040722045799154E-008
   31.5281250000000         7.287246039017982E-008
   31.7418750000000         7.540202220952780E-008
   31.9556250000000         7.799630169918852E-008
   32.1693750000000         8.065582822386771E-008
   32.3831250000000         8.338128551236347E-008
   32.5968750000000         8.617351183644939E-008
   32.8106250000000         8.903348088447632E-008
   33.0243750000000         9.196226728844445E-008
   33.2381250000000         9.496100246026647E-008
   33.4518750000000         9.803082711943897E-008
   33.6656250000000         1.011728470396657E-007
   33.8793750000000         1.043880974298442E-007
   34.0931250000000         1.076775198442195E-007
   34.3068750000000         1.110419532646760E-007
   34.5206250000000         1.144821390933957E-007
   34.7343750000000         1.179987379096175E-007
   34.9481250000000         1.215923542515517E-007
   35.1618750000000         1.252635651365455E-007
   35.3756250000000         1.290129478383452E-007
   35.5893750000000         1.328411031753787E-007
   35.8031250000000         1.367486716919486E-007
   36.0168750000000         1.407363414773850E-007
   36.2306250000000         1.448048481980178E-007
   36.4443750000000         1.489549691415729E-007
   36.6581250000000         1.531875143528139E-007
   36.8718750000000         1.575033181325505E-007
   37.0856250000000         1.619032343735485E-007
   37.2993750000000         1.663881383061166E-007
   37.5131250000000         1.709589361759616E-007
   37.7268750000000         1.756165825201602E-007
   37.9406250000000         1.803621034678723E-007
   38.1543750000000         1.851966229445412E-007
   38.3681250000000         1.901213877147453E-007
   38.5818750000000         1.951377870883681E-007
   38.7956250000000         2.002473633441584E-007
   39.0093750000000         2.054518102051398E-007
   39.2231250000000         2.107529582888918E-007
   39.4368750000000         2.161527482284774E-007
   39.6506250000000         2.216531941076955E-007
   39.8643750000000         2.272563412501697E-007
   40.0781250000000         2.329642231622517E-007
   40.2918750000000         2.387788225581053E-007
   40.5056250000000         2.447020406997761E-007
   40.7193750000000         2.507356779719503E-007
   40.9331250000000         2.568814268469927E-007
   41.1468750000000         2.631408767058345E-007
   41.3606250000000         2.695155287222301E-007
   41.5743750000000         2.760068176714458E-007
   41.7881250000000         2.826161378318867E-007
   42.0018750000000         2.893448704425914E-007
   42.2156250000000         2.961944108931955E-007
   42.4293750000000         3.031661950787716E-007
   42.6431250000000         3.102617256681265E-007
   42.8568750000000         3.174825986795155E-007
   43.0706250000000         3.248305310891244E-007
   43.2843750000000         3.323073885154799E-007
   43.4981250000000         3.399152105513170E-007
   43.7118750000000         3.476562291366922E-007
   43.9256250000000         3.555328736395263E-007
   44.1393750000000         3.635477555620023E-007
   44.3531250000000         3.717036263978713E-007
   44.5668750000000         3.800033044844619E-007
   44.7806250000000         3.884495711170019E-007
   44.9943750000000         3.970450414515224E-007
   45.2081250000000         4.057920222630823E-007
   45.4218750000000         4.146923742983847E-007
   45.6356250000000         4.237474012737753E-007
   45.8493750000000         4.329577890644033E-007
   46.0631250000000         4.423236162102373E-007
   46.2768750000000         4.518444506744723E-007
   46.4906250000000         4.615195374095580E-007
   46.7043750000000         4.713480678471437E-007
   46.9181250000000         4.813295080071022E-007
   47.1318750000000         4.914639476604903E-007
   47.3456250000000         5.017524224003244E-007
   47.5593750000000         5.121971551247815E-007
   47.7731250000000         5.228016653496193E-007
   47.9868750000000         5.335707055577716E-007
   48.2006250000000         5.445100018506069E-007
   48.4143750000000         5.556258021862639E-007
   48.6281250000000         5.669242645533321E-007
   48.8418750000000         5.784107471382511E-007
   49.0556250000000         5.900890880996241E-007
   49.2693750000000         6.019609788965906E-007
   49.4831250000000         6.140255394016777E-007
   49.6968750000000         6.262791910550787E-007
   49.9106250000000         6.387158968752650E-007
   50.1243750000000         6.513277951470756E-007
   50.3381250000000         6.641062003935136E-007
   50.5518750000000         6.770428883533580E-007
   50.7656250000000         6.901315275143680E-007
   50.9793750000000         7.033690775541988E-007
   51.1931250000000         7.167569521875533E-007
   51.4068750000000         7.303017472249807E-007
   51.6206250000000         7.440153668228215E-007
   51.8343750000000         7.579144415435355E-007
   52.0481250000000         7.720190171047939E-007
   52.2618750000000         7.863505921833629E-007
   52.4756250000000         8.009296866940414E-007
   52.6893750000000         8.157732127402993E-007
   52.9031250000000         8.308919855370594E-007
   53.1168750000000         8.462887373807473E-007
   53.3306250000000         8.619569753012789E-007
   53.5443750000000         8.778809500123541E-007
   53.7581250000000         8.940368829497130E-007
   53.9718750000000         9.103954415185405E-007
   54.1856250000000         9.269252771396352E-007
   54.3993750000000         9.435972698593834E-007
   54.6131250000000         9.603889811048329E-007
   54.8268750000000         9.772887267655343E-007
   55.0406250000000         9.942986655810003E-007
   55.2543750000000         1.011436363396685E-006
   55.4681250000000         1.028734443468573E-006
   55.6818750000000         1.046238154621840E-006
   55.8956250000000         1.064000960348732E-006
   56.1093750000000         1.082078539704517E-006
   56.3231250000000         1.100521856292354E-006
   56.5368750000000         1.119370154449755E-006
   56.7506250000000         1.138644845780909E-006
   56.9643750000000         1.158345228204300E-006
   57.1781250000000         1.178446823467285E-006
   57.3918750000000         1.198902833329710E-006
   57.6056250000000         1.219648826712775E-006
   57.8193750000000         1.240610323867505E-006
   58.0331250000000         1.261712496418549E-006
   58.2468750000000         1.282890817961745E-006
   58.4606250000000         1.304101242041208E-006
   58.6743750000000         1.325328402536105E-006
   58.8881250000000         1.346590459300638E-006
   59.1018750000000         1.367939552995113E-006
   59.3156250000000         1.389457362756559E-006
   59.5293750000000         1.411245923325056E-006
   59.7431250000000         1.433414572580454E-006
   59.9568750000000         1.456064568276910E-006
   60.1706250000000         1.479273430336316E-006
   60.3843750000000         1.503081338792979E-006
   60.5981250000000         1.527481877823229E-006
   60.8118750000000         1.552419030705739E-006
   61.0256250000000         1.577791613407772E-006
   61.2393750000000         1.603465350282868E-006
   61.4531250000000         1.629291655227624E-006
   61.6668750000000         1.655131034833748E-006
   61.8806250000000         1.680878044782615E-006
   62.0943750000000         1.706484074844375E-006
   62.3081250000000         1.731974052473768E-006
   62.5218750000000         1.757453532776488E-006
   62.7356250000000         1.783103605393436E-006
   62.9493750000000         1.809162538535044E-006
   63.1631250000000         1.835894953433785E-006
   63.3768750000000         1.863551358932542E-006
   63.5906250000000         1.892322804125129E-006
   63.8043750000000         1.922296927631567E-006
   64.0181250000000         1.953422514611520E-006
   64.2318750000000         1.985489589991426E-006
   64.4456250000000         2.018130950366825E-006
   64.6593750000000         2.050848864964177E-006
   64.8731250000000         2.083067603203857E-006
   65.0868750000000         2.114208764683066E-006
   65.3006250000000         2.143782517797383E-006
   65.5143750000000         2.171484305968214E-006
   65.7281250000000         2.197283901273718E-006
   65.9418750000000         2.221492382937656E-006
   66.1556250000000         2.244793095935493E-006
   66.3693750000000         2.268225127638690E-006
   66.5831250000000         2.293112319231226E-006
   66.7968750000000         2.320937031379845E-006
   67.0106250000000         2.353165265369097E-006
   67.2243750000000         2.391037521113955E-006
   67.4381250000000         2.435346998630211E-006
   67.6518750000000         2.486232389063359E-006
   67.8656250000000         2.543015571475767E-006
   68.0793750000000         2.604114220842382E-006
   68.2931250000000         2.667055133479916E-006
   68.5068750000000         2.728605888831779E-006
   68.7206250000000         2.785030671373924E-006
   68.9343750000000         2.832461556642490E-006
   69.1481250000000         2.867360669664169E-006
   69.3618750000000         2.887033071368449E-006
   69.5756250000000         2.890136952054320E-006
   69.7893750000000         2.877128661071620E-006
   70.0031250000000         2.850577012844548E-006
   70.2168750000000         2.815285470956055E-006
   70.4306250000000         2.778172854540287E-006
   70.6443750000000         2.747882942539245E-006
   70.8581250000000         2.734119669130512E-006
   71.0718750000000         2.746735496253076E-006
   71.2856250000000         2.794633202706132E-006
   71.4993750000000         2.884572337199902E-006
   71.7131250000000         3.019997246841427E-006
   71.9268750000000         3.200020295920781E-006
   72.1406250000000         3.418698501438763E-006
   72.3543750000000         3.664732092947035E-006
   72.5681250000000         3.921688463025378E-006
   72.7818750000000         4.168815125214974E-006
   72.9956250000000         4.382452799129596E-006
   73.2093750000000         4.537998370170265E-006
   73.4231250000000         4.612302415641953E-006
   73.6368750000000         4.586323487359183E-006
   73.8506250000000         4.447808160232296E-006
   74.0643750000000         4.193728659837104E-006
   74.2781250000000         3.832194540596290E-006
   74.4918750000000         3.383565794340353E-006
   74.7056250000000         2.880534237932611E-006
   74.9193750000000         2.367007819503411E-006
   75.1331250000000         1.895725549679214E-006
   75.3468750000000         1.524643239237010E-006
   75.5606250000000         1.312253685463832E-006
   75.7743750000000         1.312128949320430E-006
   75.9881250000000         1.567085223881668E-006
   76.2018750000000         2.103460565764318E-006
   76.4156250000000         2.926051338571024E-006
   76.6293750000000         4.014265446415770E-006
   76.8431250000000         5.320013163252210E-006
   77.0568750000000         6.767767297661529E-006
   77.2706250000000         8.257085730398325E-006
   77.4843750000000         9.667707865463850E-006
   77.6981250000000         1.086712360697724E-005
   77.9118750000000         1.172028441044819E-005
   78.1256250000000         1.210089900967916E-005
   78.3393750000000         1.190355146862529E-005
   78.5531250000000         1.105571618207864E-005
   78.7668750000000         9.528641624970759E-006
   78.9806250000000         7.346046939449176E-006
   79.1943750000000         4.589632850307954E-006
   79.4081250000000         1.400554737908033E-006
   79.6218750000000        -2.023762213334435E-006
   79.8356250000000        -5.437778550109949E-006
   80.0493750000000        -8.560914559319782E-006
   80.2631250000000        -1.109509172666828E-005
   80.4768750000000        -1.274588655080192E-005
   80.6906250000000        -1.324606376998143E-005
   80.9043750000000        -1.237993651872638E-005
   81.1181250000000        -1.000676992874911E-005
   81.3318750000000        -6.081328094879795E-006
   81.5456250000000        -6.696813334624697E-007
   81.7593750000000         6.041448179875541E-006
   81.9731250000000         1.374321851018155E-005
   82.1868750000000         2.201205382122235E-005
   82.4006250000000         3.032630676207152E-005
   82.6143750000000         3.809198488392891E-005
   82.8281250000000         4.467665081961115E-005
   83.0418750000000         4.944993126258620E-005
   83.2556250000000         5.182844690146038E-005
   83.4693750000000         5.132245299601916E-005
   83.6831250000000         4.758110321265573E-005
   83.8968750000000         4.043305561859611E-005
   84.1106250000000         2.991915717380522E-005
   84.3243750000000         1.631418673623473E-005
   84.5381250000000         1.351070327137612E-007
   84.7518750000000        -1.786604172232542E-005
   84.9656250000000        -3.672561022879559E-005
   85.1793750000000        -5.530817377824583E-005
   85.3931250000000        -7.236165406756574E-005
   85.6068750000000        -8.658555747729501E-005
   85.8206250000000        -9.670912054040829E-005
   86.0343750000000        -1.015752445753732E-004
   86.2481250000000        -1.002253896837570E-004
   86.4618750000000        -9.198014319937702E-005
   86.6756250000000        -7.651002613095639E-005
   86.8893750000000        -5.389128354686770E-005
   87.1031250000000        -2.464193218320774E-005
   87.3168750000000         1.026579944162768E-005
   87.5306250000000         4.941933851114552E-005
   87.7443750000000         9.100722900949639E-005
   87.9581250000000         1.328878809776110E-004
   88.1718750000000         1.726836213089165E-004
   88.3856250000000         2.078963873659622E-004
   88.5993750000000         2.360398460005740E-004
   88.8131250000000         2.547813790364222E-004
   89.0268750000000         2.620863486511046E-004
   89.2406250000000         2.563564255733641E-004
   89.4543750000000         2.365535931998788E-004
   89.6681250000000         2.023017703934672E-004
   89.8818750000000         1.539588346666318E-004
   90.0956250000000         9.265315399162362E-005
   90.3093750000000         2.028049563431157E-005
   90.5231250000000        -6.054071085317870E-005
   90.7368750000000        -1.465554348220886E-004
   90.9506250000000        -2.339966631174257E-004
   91.1643750000000        -3.187434138794903E-004
   91.3781250000000        -3.965047942615966E-004
   91.5918750000000        -4.630209208232783E-004
   91.8056250000000        -5.142701891182181E-004
   92.0193750000000        -5.466716582264663E-004
   92.2331250000000        -5.572712860301801E-004
   92.4468750000000        -5.439014488312134E-004
   92.6606250000000        -5.053045933048205E-004
   92.8743750000000        -4.412139378790125E-004
   93.0881250000000        -3.523867525818338E-004
   93.3018750000000        -2.405887439679330E-004
   93.5156250000000        -1.085312605597567E-004
   93.7293750000000         4.023380544794242E-005
   93.9431250000000         2.014536432694133E-004
   94.1568750000000         3.703384812736949E-004
   94.3706250000000         5.417379520348391E-004
   94.5843750000000         7.103170560271305E-004
   94.7981250000000         8.707189870627155E-004
   95.0118750000000         1.017703149798957E-003
   95.2256250000000         1.146248728662033E-003
   95.4393750000000         1.251617048474794E-003
   95.6531250000000         1.329369517680756E-003
   95.8668750000000         1.375341920432569E-003
   96.0806250000000         1.385579931793123E-003
   96.2943750000000         1.356244651470799E-003
   96.5081250000000         1.283500362624764E-003
   96.7218750000000         1.163399321292551E-003
   96.9356250000000         9.917799128482123E-004
   97.1493750000000         7.641947869719571E-004
   97.3631250000000         4.758845009278632E-004
   97.5768750000000         1.218097604812285E-004
   97.7906250000000        -3.032483494205228E-004
   98.0043750000000        -8.045155027041461E-004
   98.2181250000000        -1.386979507661215E-003
   98.4318750000000        -2.055080692166883E-003
   98.6456250000000        -2.812349953854216E-003
   98.8593750000000        -3.661012559740987E-003
   99.0731250000000        -4.601580334798874E-003
   99.2868750000000        -5.632458182795757E-003
   99.5006250000000        -6.749592631227843E-003
   99.7143750000000        -7.946190078046140E-003
   99.9281250000000        -9.212530548605397E-003
   100.141875000000        -1.053589907867476E-002
   100.355625000000        -1.190065148068735E-002
   100.569375000000        -1.328842450037325E-002
   100.783125000000        -1.467849260540779E-002
   100.996875000000        -1.604826532036459E-002
   101.210625000000        -1.737391063556618E-002
   101.424375000000        -1.863108209035331E-002
   101.638125000000        -1.979572016581664E-002
   101.851875000000        -2.084489307077863E-002
   102.065625000000        -2.175763824197038E-002
   102.279375000000        -2.251576417676020E-002
   102.493125000000        -2.310457272657462E-002
   102.706875000000        -2.351346472388505E-002
   102.920625000000        -2.373639668645013E-002
   103.134375000000        -2.377216310509677E-002
   103.348125000000        -2.362448712919414E-002
   103.561875000000        -2.330191187804331E-002
   103.775625000000        -2.281749461965607E-002
   103.989375000000        -2.218831612410134E-002
   104.203125000000        -2.143482706051843E-002
   104.416875000000        -2.058006182986420E-002
   104.630625000000        -1.964875722477789E-002
   104.844375000000        -1.866641837618645E-002
   105.058125000000        -1.765837727622468E-002
   105.271875000000        -1.664888956970347E-002
   105.485625000000        -1.566031322314118E-002
   105.699375000000        -1.471240818886226E-002
   105.913125000000        -1.382178949456113E-002
   106.126875000000        -1.300155764577009E-002
   106.340625000000        -1.226112028172258E-002
   106.554375000000        -1.160620821677290E-002
   106.768125000000        -1.103907793603979E-002
   106.981875000000        -1.055888193329672E-002
   107.195625000000        -1.016217861598258E-002
   107.409375000000        -9.843545451019490E-003
   107.623125000000        -9.596253103640675E-003
   107.836875000000        -9.412954936522340E-003
   108.050625000000        -9.286345654647716E-003
   108.264375000000        -9.209745205799508E-003
   108.478125000000        -9.177569203446898E-003
   108.691875000000        -9.185654873171795E-003
   108.905625000000        -9.231421407422920E-003
   109.119375000000        -9.313855064047777E-003
   109.333125000000        -9.433321656121233E-003
   109.546875000000        -9.591221465772319E-003
   109.760625000000        -9.789513250635686E-003
   109.974375000000        -1.003014409542264E-002
   110.188125000000        -1.031442966491635E-002
   110.401875000000        -1.064243433816976E-002
   110.615625000000        -1.101240232090800E-002
   110.829375000000        -1.142028892916398E-002
   111.043125000000        -1.185943583130951E-002
   111.256875000000        -1.232042538902109E-002
   111.470625000000        -1.279113784381373E-002
   111.684375000000        -1.325702165378762E-002
   111.898125000000        -1.370157265759633E-002
   112.111875000000        -1.410700289924739E-002
   112.325625000000        -1.445506590016833E-002
   112.539375000000        -1.472799289778744E-002
   112.753125000000        -1.490948496817018E-002
   112.966875000000        -1.498569973665587E-002
   113.180625000000        -1.494616906070771E-002
   113.394375000000        -1.478458589294703E-002
   113.608125000000        -1.449940447180083E-002
   113.821875000000        -1.409420773559355E-002
   114.035625000000        -1.357780884597395E-002
   114.249375000000        -1.296406914755335E-002
   114.463125000000        -1.227143182130504E-002
   114.676875000000        -1.152218784270339E-002
   114.890625000000        -1.074150753091334E-002
   115.104375000000        -9.956285911244814E-003
   115.318125000000        -9.193862357515114E-003
   115.531875000000        -8.480683752349517E-003
   115.745625000000        -7.840985139272956E-003
   115.959375000000        -7.295562230184736E-003
   116.173125000000        -6.860706132648669E-003
   116.386875000000        -6.547362496365917E-003
   116.600625000000        -6.360565417520583E-003
   116.814375000000        -6.299181567902833E-003
   117.028125000000        -6.355982986799327E-003
   117.241875000000        -6.518048758100215E-003
   117.455625000000        -6.767477422436218E-003
   117.669375000000        -7.082374474546856E-003
   117.883125000000        -7.438063644070043E-003
   118.096875000000        -7.808457721549734E-003
   118.310625000000        -8.167515188390225E-003
   118.524375000000        -8.490703372256376E-003
   118.738125000000        -8.756387600315543E-003
   118.951875000000        -8.947068959142412E-003
   119.165625000000        -9.050400660430807E-003
   119.379375000000        -9.059924301411008E-003
   119.593125000000        -8.975481936933425E-003
   119.806875000000        -8.803277104360768E-003
   120.020625000000        -8.555576873698692E-003
   120.234375000000        -8.250066639838100E-003
   120.448125000000        -7.908888680696760E-003
   120.661875000000        -7.557413419820054E-003
   120.875625000000        -7.222807851384943E-003
   121.089375000000        -6.932477812871165E-003
   121.303125000000        -6.712468988041878E-003
   121.516875000000        -6.585915157329986E-003
   121.730625000000        -6.571620993000716E-003
   121.944375000000        -6.682860597672126E-003
   122.158125000000        -6.926462258457466E-003
   122.371875000000        -7.302235056946355E-003
   122.585625000000        -7.802774806567821E-003
   122.799375000000        -8.413666260813590E-003
   123.013125000000        -9.114076780145598E-003
   123.226875000000        -9.877714883608097E-003
   123.440625000000        -1.067410658199338E-002
   123.654375000000        -1.147012427409947E-002
   123.868125000000        -1.223168833742037E-002