  -1.60312500000000        -1.791060065365700E-024
  -1.38937500000000        -1.382451654333991E-022
  -1.17562500000000        -1.607170150837131E-021
 -0.961875000000000        -1.096652622040815E-020
 -0.748125000000000        -5.597770274327235E-020
 -0.534375000000000        -2.343752501903149E-019
 -0.320625000000000        -8.403543544045944E-019
 -0.106875000000000        -2.642230160067555E-018
  0.106875000000000        -7.398765628959520E-018
  0.320625000000000        -1.867806539236858E-017
  0.534375000000000        -4.296209074449407E-017
  0.748125000000000        -9.090226462702356E-017
  0.961875000000000        -1.784884367848556E-016
   1.17562500000000        -3.278413262704056E-016
   1.38937500000000        -5.673433865291891E-016
   1.60312500000000        -9.309575510083724E-016
   1.81687500000000        -1.456677915579794E-015
   2.03062500000000        -2.184127339934158E-015
   2.24437500000000        -3.151582075154000E-015
   2.45812500000000        -4.392686734035941E-015
   2.67187500000000        -5.933174722568064E-015
   2.88562500000000        -7.788088558435294E-015
   3.09937500000000        -9.959832014264056E-015
   3.31312500000000        -1.243728180189579E-014
   3.52687500000000        -1.519616153867609E-014
   3.74062500000000        -1.820078214908948E-014
   3.95437500000000        -2.140677486639459E-014
   4.16812500000000        -2.476446637983804E-014
   4.38187500000000        -2.822281127004927E-014
   4.59562500000000        -3.173312639103262E-014
   4.80937500000000        -3.525219526350458E-014
   5.02312500000000        -3.874450701766639E-014
   5.23687500000000        -4.218339991274828E-014
   5.45062500000000        -4.555107501274813E-014
   5.66437500000000        -4.883754883617516E-014
   5.87812500000000        -5.203926277597178E-014
   6.09187500000000        -5.515735933529929E-014
   6.30562500000000        -5.819615830033437E-014
   6.51937500000000        -6.116247067639309E-014
   6.73312500000000        -6.406575533066633E-014
   6.94687500000000        -6.691889664421421E-014
   7.16062500000000        -6.973965486857057E-014
   7.37437500000000        -7.255255177574752E-014
   7.58812500000000        -7.539026800690873E-014
   7.80187500000000        -7.829408899977533E-014
   8.01562500000000        -8.131319809610987E-014
   8.22937500000000        -8.450253874402781E-014
   8.44312500000000        -8.791900976708564E-014
   8.65687500000000        -9.161663396803359E-014
   8.87062500000000        -9.564116107487084E-014
   9.08437500000000        -1.000247505979233E-013
   9.29812500000000        -1.047815764979410E-013
   9.51187500000000        -1.099050685230444E-013
   9.72562500000000        -1.153671041789446E-013
   9.93937500000000        -1.211194675109660E-013
   10.1531250000000        -1.270974062555993E-013
   10.3668750000000        -1.332246491831526E-013
   10.5806250000000        -1.394194253151132E-013
   10.7943750000000        -1.456004444899311E-013
   11.0081250000000        -1.516921971493202E-013
   11.2218750000000        -1.576288973207068E-013
   11.4356250000000        -1.633566954187517E-013
   11.6493750000000        -1.688342806504930E-013
   11.8631250000000        -1.740320628542813E-013
   12.0768750000000        -1.789304351902077E-013
   12.2906250000000        -1.835179613172379E-013
   12.5043750000000        -1.877900778303908E-013
   12.7181250000000        -1.917487345846180E-013
   12.9318750000000        -1.954033801341486E-013
   13.1456250000000        -1.987729604595130E-013
   13.3593750000000        -2.018883900625584E-013
   13.5731250000000        -2.047950175934259E-013
   13.7868750000000        -2.075540581950767E-013
   14.0006250000000        -2.102422886331782E-013
   14.2143750000000        -2.129495223162077E-013
   14.4281250000000        -2.157735635559159E-013
   14.6418750000000        -2.188132533754172E-013
   14.8556250000000        -2.221602062780342E-013
   15.0693750000000        -2.258902510075242E-013
   15.2831250000000        -2.300559401990260E-013
   15.4968750000000        -2.346813257557687E-013
   15.7106250000000        -2.397598589238957E-013
   15.9243750000000        -2.452558679860133E-013
   16.1381250000000        -2.511095713267237E-013
   16.3518750000000        -2.572450580795898E-013
   16.5656250000000        -2.635800127070722E-013
   16.7793750000000        -2.700357644513620E-013
   16.9931250000000        -2.765461811661968E-013
   17.2068750000000        -2.830639316434343E-013
   17.4206250000000        -2.895634520250908E-013
   17.6343750000000        -2.960400241028923E-013
   17.8481250000000        -3.025052535947445E-013
   18.0618750000000        -3.089800576454357E-013
   18.2756250000000        -3.154861898963532E-013
   18.4893750000000        -3.220382426544405E-013
   18.7031250000000        -3.286373886960189E-013
   18.9168750000000        -3.352681683455016E-013
   19.1306250000000        -3.418989652594246E-013
   19.3443750000000        -3.484862112452095E-013
   19.5581250000000        -3.549816810093809E-013
   19.7718750000000        -3.613414044771589E-013
   19.9856250000000        -3.675350329373804E-013
   20.1993750000000        -3.735537336230470E-013
   20.4131250000000        -3.794152122596366E-013
   20.6268750000000        -3.851649874486415E-013
   20.8406250000000        -3.908735549738841E-013
   21.0543750000000        -3.966296279845286E-013
   21.2681250000000        -4.025306225722879E-013
   21.4818750000000        -4.086718009930259E-013
   21.6956250000000        -4.151356466280420E-013
   21.9093750000000        -4.219832409785152E-013
   22.1231250000000        -4.292489113780765E-013
   22.3368750000000        -4.369388864881324E-013
   22.5506250000000        -4.450339765943688E-013
   22.7643750000000        -4.534958170350220E-013
   22.9781250000000        -4.622754556222841E-013
   23.1918750000000        -4.713226669757901E-013
   23.4056250000000        -4.805945161043397E-013
   23.6193750000000        -4.900616636802363E-013
   23.8331250000000        -4.997113112685858E-013
   24.0468750000000        -5.095464879976895E-013
   24.2606250000000        -5.195819574231477E-013
   24.4743750000000        -5.298374596965513E-013
   24.6881250000000        -5.403296876018183E-013
   24.9018750000000        -5.510644954700849E-013
   25.1156250000000        -5.620309403628825E-013
   25.3293750000000        -5.731982175831623E-013
   25.5431250000000        -5.845162386221529E-013
   25.7568750000000        -5.959198654691775E-013
   25.9706250000000        -6.073361867850915E-013
   26.1843750000000        -6.186938095888401E-013
   26.3981250000000        -6.299327535007848E-013
   26.6118750000000        -6.410133310917694E-013
   26.8256250000000        -6.519224406637020E-013
   27.0393750000000        -6.626766303066033E-013
   27.2531250000000        -6.733211674810125E-013
   27.4668750000000        -6.839251964965795E-013
   27.6806250000000        -6.945738716120993E-013
   27.8943750000000        -7.053585128914348E-013
   28.1081250000000        -7.163662666537642E-013
   28.3218750000000        -7.276709124973286E-013
   28.5356250000000        -7.393258489695955E-013
   28.7493750000000        -7.513602001938725E-013
   28.9631250000000        -7.637786135704301E-013
   29.1768750000000        -7.765642510092890E-013
   29.3906250000000        -7.896842888424706E-013
   29.6043750000000        -8.030969616948657E-013
   29.8181250000000        -8.167586607727200E-013
   30.0318750000000        -8.306298902143998E-013
   30.2456250000000        -8.446791715204795E-013
   30.4593750000000        -8.588841779077364E-013
   30.6731250000000        -8.732301121776426E-013
   30.8868750000000        -8.877057795879386E-013
   31.1006250000000        -9.022981494496833E-013
   31.3143750000000        -9.169866130840931E-013
   31.5281250000000        -9.317381508818212E-013
   31.7418750000000        -9.465045477399520E-013
   31.9556250000000        -9.612223600949277E-013
   32.1693750000000        -9.758160443740130E-013
   32.3831250000000        -9.902040569764644E-013
   32.5968750000000        -1.004307254182490E-012
   32.8106250000000        -1.018058448092140E-012
   33.0243750000000        -1.031411705685534E-012
   33.2381250000000        -1.044350178533613E-012
   33.4518750000000        -1.056891108850230E-012
   33.6656250000000        -1.069087132924053E-012
   33.8793750000000        -1.081023579117019E-012
   34.0931250000000        -1.092811874624948E-012
   34.3068750000000        -1.104579871444708E-012
   34.5206250000000        -1.116460282455546E-012
   34.7343750000000        -1.128578633095702E-012
   34.9481250000000        -1.141042366879793E-012
   35.1618750000000        -1.153932433177170E-012
   35.3756250000000        -1.167298381684122E-012
   35.5893750000000        -1.181157617359595E-012
   35.8031250000000        -1.195498704273545E-012
   36.0168750000000        -1.210288083401513E-012
   36.2306250000000        -1.225479271834035E-012
   36.4443750000000        -1.241022970208768E-012
   36.6581250000000        -1.256876568936258E-012
   36.8718750000000        -1.273011799148510E-012
   37.0856250000000        -1.289419170766659E-012
   37.2993750000000        -1.306108629030812E-012
   37.5131250000000        -1.323106385958093E-012
   37.7268750000000        -1.340448568497393E-012
   37.9406250000000        -1.358172542224591E-012
   38.1543750000000        -1.376307284421338E-012
   38.3681250000000        -1.394864489851763E-012
   38.5818750000000        -1.413831955321815E-012
   38.7956250000000        -1.433170161117710E-012
   39.0093750000000        -1.452812822846279E-012
   39.2231250000000        -1.472671816484324E-012
   39.4368750000000        -1.492645335215441E-012
   39.6506250000000        -1.512628557039313E-012
   39.8643750000000        -1.532525445245435E-012
   40.0781250000000        -1.552259879285383E-012
   40.2918750000000        -1.571784733881325E-012
   40.5056250000000        -1.591087666605618E-012
   40.7193750000000        -1.610192962458954E-012
   40.9331250000000        -1.629159229215619E-012
   41.1468750000000        -1.648073474855159E-012
   41.3606250000000        -1.667042364356621E-012
   41.5743750000000        -1.686181862833753E-012
   41.7881250000000        -1.705606704182621E-012
   42.0018750000000        -1.725420653234477E-012
   42.2156250000000        -1.745708647098976E-012
   42.4293750000000        -1.766531188478907E-012
   42.6431250000000        -1.787921173557434E-012
   42.8568750000000        -1.809882880549996E-012
   43.0706250000000        -1.832392605358333E-012
   43.2843750000000        -1.855400567855992E-012
   43.4981250000000        -1.878833706854308E-012
   43.7118750000000        -1.902599487837371E-012
   43.9256250000000        -1.926590596249262E-012
   44.1393750000000        -1.950691374988280E-012
   44.3531250000000        -1.974786297016187E-012
   44.5668750000000        -1.998770583884292E-012
   44.7806250000000        -2.022563009280644E-012
   44.9943750000000        -2.046119591197370E-012
   45.2081250000000        -2.069446492502547E-012
   45.4218750000000        -2.092609756853061E-012
   45.6356250000000        -2.115738897289203E-012
   45.8493750000000        -2.139021587940599E-012
   46.0631250000000        -2.162687390459573E-012
   46.2768750000000        -2.186979772509528E-012
   46.4906250000000        -2.212117718240853E-012
   46.7043750000000        -2.238250146115236E-012
   46.9181250000000        -2.265408728384799E-012
   47.1318750000000        -2.293466727806252E-012
   47.3456250000000        -2.322112089573516E-012
   47.5593750000000        -2.350842965259520E-012
   47.7731250000000        -2.378992040176266E-012
   47.9868750000000        -2.405783171448639E-012
   48.2006250000000        -2.430419304776652E-012
   48.4143750000000        -2.452195389512223E-012
   48.6281250000000        -2.470625060114350E-012
   48.8418750000000        -2.485564888773099E-012
   49.0556250000000        -2.497317268835713E-012
   49.2693750000000        -2.506692028057987E-012
   49.4831250000000        -2.515009193351792E-012
   49.6968750000000        -2.524030232072752E-012
   49.9106250000000        -2.535813178315460E-012
   50.1243750000000        -2.552497371481953E-012
   50.3381250000000        -2.576034314198918E-012
   50.5518750000000        -2.607891778479412E-012
   50.7656250000000        -2.648767317036343E-012
   50.9793750000000        -2.698352241187487E-012
   51.1931250000000        -2.755187339178365E-012
   51.4068750000000        -2.816646194762257E-012
   51.6206250000000        -2.879070577719179E-012
   51.8343750000000        -2.938066207706843E-012
   52.0481250000000        -2.988946664939057E-012
   52.2618750000000        -3.027291461979830E-012
   52.4756250000000        -3.049563605024033E-012
   52.6893750000000        -3.053715057035904E-012
   52.9031250000000        -3.039698767796682E-012
   53.1168750000000        -3.009805750956392E-012
   53.3306250000000        -2.968754915364704E-012
   53.5443750000000        -2.923484897659898E-012
   53.7581250000000        -2.882628122915206E-012
   53.9718750000000        -2.855684719538283E-012
   54.1856250000000        -2.851956168825536E-012
   54.3993750000000        -2.879338008097718E-012
   54.6131250000000        -2.943103737308452E-012
   54.8268750000000        -3.044833437513465E-012
   55.0406250000000        -3.181644631166791E-012
   55.2543750000000        -3.345867914480991E-012
   55.4681250000000        -3.525273994623918E-012
   55.6818750000000        -3.703904961299642E-012
   55.8956250000000        -3.863494257900619E-012
   56.1093750000000        -3.985382827831002E-012
   56.3231250000000        -4.052763728013111E-012
   56.5368750000000        -4.053023177231914E-012
   56.7506250000000        -3.979900680635475E-012
   56.9643750000000        -3.835174921339204E-012
   57.1781250000000        -3.629600817100713E-012
   57.3918750000000        -3.382878090142166E-012
   57.6056250000000        -3.122521893751951E-012
   57.8193750000000        -2.881624175067941E-012
   58.0331250000000        -2.695629964582655E-012
   58.2468750000000        -2.598389761468584E-012
   58.4606250000000        -2.617873007128408E-012
   58.6743750000000        -2.772019036310812E-012
   58.8881250000000        -3.065246462044298E-012
   59.1018750000000        -3.486128392292725E-012
   59.3156250000000        -4.006663247492073E-012
   59.5293750000000        -4.583431714440176E-012
   59.7431250000000        -5.160737895388530E-012
   59.9568750000000        -5.675605810324374E-012
   60.1706250000000        -6.064263328366574E-012
   60.3843750000000        -6.269523452915939E-012
   60.5981250000000        -6.248294999766344E-012
   60.8118750000000        -5.978349159369029E-012
   61.0256250000000        -5.463455724870336E-012
   61.2393750000000        -4.736093775213559E-012
   61.4531250000000        -3.857137386834212E-012
   61.6668750000000        -2.912206856777306E-012
   61.8806250000000        -2.004732128830233E-012
   62.0943750000000        -1.246164332182453E-012
   62.3081250000000        -7.441523628843916E-013
   62.5218750000000        -5.898242115871345E-013
   62.7356250000000        -8.455378492213286E-013
   62.9493750000000        -1.534555729831822E-012
   63.1631250000000        -2.634027379747341E-012
   63.3768750000000        -4.072428561826584E-012
   63.5906250000000        -5.732215270866192E-012
   63.8043750000000        -7.457937120252176E-012
   64.0181250000000        -9.069462482772564E-012
   64.2318750000000        -1.037936083108847E-011
   64.4456250000000        -1.121292976830142E-011
   64.6593750000000        -1.142891369288310E-011
   64.8731250000000        -1.093869743586899E-011
   65.0868750000000        -9.721712891210043E-012
   65.3006250000000        -7.834996687796180E-012
   65.5143750000000        -5.415277733559653E-012
   65.7281250000000        -2.672626886568222E-012
   65.9418750000000         1.244845519369061E-013
   66.1556250000000         2.671969631461749E-012
   66.3693750000000         4.659107161422472E-012
   66.5831250000000         5.801268935006616E-012
   66.7968750000000         5.873322942640714E-012
   67.0106250000000         4.740286991589756E-012
   67.2243750000000         2.381768298525563E-012
   67.4381250000000        -1.092969036721706E-012
   67.6518750000000        -5.441818951853948E-012
   67.8656250000000        -1.030009106237935E-011
   68.0793750000000        -1.520458682174231E-011
   68.2931250000000        -1.963054350652818E-011
   68.5068750000000        -2.303914405933098E-011
   68.7206250000000        -2.493203258213568E-011
   68.9343750000000        -2.490823234797806E-011
   69.1481250000000        -2.271814903118111E-011
   69.3618750000000        -1.830904157761400E-011
   69.5756250000000        -1.185652344741790E-011
   69.7893750000000        -3.777343021900950E-012
   70.0031250000000         5.280127594006338E-012
   70.2168750000000         1.446963711958140E-011
   70.4306250000000         2.280499197449367E-011
   70.6443750000000         2.923992847979834E-011
   70.8581250000000         3.276536936834601E-011
   71.0718750000000         3.251732299063250E-011
   71.2856250000000         2.788678472535463E-011
   71.4993750000000         1.862158943060956E-011
   71.7131250000000         4.909424216605137E-012
   71.9268750000000        -1.256869880110762E-011
   72.1406250000000        -3.262417254535882E-011
   72.3543750000000        -5.359334477342416E-011
   72.5681250000000        -7.342146163741972E-011
   72.7818750000000        -8.979863537177031E-011
   72.9956250000000        -1.003438105904789E-010
   73.2093750000000        -1.028276194973067E-010
   73.4231250000000        -9.541987896206325E-011
   73.6368750000000        -7.694274000308010E-011
   73.8506250000000        -4.710665259215875E-011
   74.0643750000000        -6.703868151317430E-012
   74.2781250000000         4.226635416647651E-011
   74.4918750000000         9.656494230184641E-011
   74.7056250000000         1.517924389687489E-010
   74.9193750000000         2.025936087283702E-010
   75.1331250000000         2.429908350052785E-010
   75.3468750000000         2.668385566754638E-010
   75.5606250000000         2.683783044133873E-010
   75.7743750000000         2.428608297832952E-010
   75.9881250000000         1.871895334006109E-010
   76.2018750000000         1.005291839977007E-010
   76.4156250000000        -1.518289550503355E-011
   76.6293750000000        -1.548881830562404E-010
   76.8431250000000        -3.102824050040706E-010
   77.0568750000000        -4.699668781647809E-010
   77.2706250000000        -6.199113438428613E-010
   77.4843750000000        -7.442416440250882E-010
   77.6981250000000        -8.263383434272392E-010
   77.9118750000000        -8.502018412491901E-010
   78.1256250000000        -8.020079002702213E-010
   78.3393750000000        -6.717475596753018E-010
   78.5531250000000        -4.548200759650514E-010
   78.7668750000000        -1.534298683735306E-010
   78.9806250000000         2.223687923396615E-010
   79.1943750000000         6.541301717048757E-010
   79.4081250000000         1.115109797869298E-009
   79.6218750000000         1.571088725253334E-009
   79.8356250000000         1.981978809045877E-009
   80.0493750000000         2.304199243608262E-009
   80.2631250000000         2.493747370729261E-009
   80.4768750000000         2.509816133988311E-009
   80.6906250000000         2.318742099064580E-009
   80.9043750000000         1.898007782792711E-009
   81.1181250000000         1.239976335970066E-009
   81.3318750000000         3.550111761506676E-010
   81.5456250000000        -7.263672243277631E-010
   81.7593750000000        -1.952607206687793E-009
   81.9731250000000        -3.251796514844529E-009
   82.1868750000000        -4.534053040384485E-009
   82.4006250000000        -5.695698989216445E-009
   82.6143750000000        -6.625149806133474E-009
   82.8281250000000        -7.210305547100449E-009
   83.0418750000000        -7.347086915315127E-009
   83.2556250000000        -6.948622019330728E-009
   83.4693750000000        -5.954474733676226E-009
   83.6831250000000        -4.339222654211353E-009
   83.8968750000000        -2.119652097971979E-009
   84.1106250000000         6.401526980662406E-010
   84.3243750000000         3.826484149057659E-009
   84.5381250000000         7.276986283992663E-009
   84.7518750000000         1.078529167486845E-008
   84.9656250000000         1.410946021362381E-008
   85.1793750000000         1.698410243511726E-008
   85.3931250000000         1.913579229650844E-008
   85.6068750000000         2.030109375778179E-008
   85.8206250000000         2.024626193642923E-008
   86.0343750000000         1.878745349539502E-008
   86.2481250000000         1.581011202821633E-008
   86.4618750000000         1.128610011551473E-008
   86.6756250000000         5.287144431042031E-009
   86.8893750000000        -2.006747131452065E-009
   87.1031250000000        -1.030504372149779E-008
   87.3168750000000        -1.921148150305826E-008
   87.5306250000000        -2.823636364261276E-008
   87.7443750000000        -3.681640114363104E-008
   87.9581250000000        -4.434163210889505E-008
   88.1718750000000        -5.018844686819919E-008
   88.3856250000000        -5.375725186869724E-008
   88.5993750000000        -5.451286050435590E-008
   88.8131250000000        -5.202533790610995E-008
   89.0268750000000        -4.600878009788231E-008
   89.2406250000000        -3.635540171388181E-008
   89.4543750000000        -2.316235929312944E-008
   89.6681250000000        -6.748958599636980E-009
   89.8818750000000         1.233771637059223E-008
   90.0956250000000         3.333016998690319E-008
   90.3093750000000         5.526159667978483E-008
   90.5231250000000         7.700068019083464E-008
   90.7368750000000         9.729921896480263E-008
   90.9506250000000         1.148508646792818E-007
   91.1643750000000         1.283584645636474E-007
   91.3781250000000         1.366068006249603E-007
   91.5918750000000         1.385369707645294E-007
   91.8056250000000         1.333183021041151E-007
   92.0193750000000         1.204135598367076E-007
   92.2331250000000         9.963333700339912E-008
   92.4468750000000         7.117588829707086E-008
   92.6606250000000         3.564929461977833E-008
   92.8743750000000        -5.926311431338422E-009
   93.0881250000000        -5.213770733864474E-008
   93.3018750000000        -1.012188332391193E-007
   93.5156250000000        -1.511112368428827E-007
   93.7293750000000        -1.995424251530614E-007
   93.9431250000000        -2.441187395886962E-007
   94.1568750000000        -2.824284339686342E-007
   94.3706250000000        -3.121499221618287E-007
   94.5843750000000        -3.311597255490785E-007
   94.7981250000000        -3.376345251175513E-007
   95.0118750000000        -3.301419253120909E-007
   95.2256250000000        -3.077150622199618E-007
   95.4393750000000        -2.699070117251171E-007
   95.6531250000000        -2.168220284471633E-007
   95.8668750000000        -1.491219106836522E-007
   96.0806250000000        -6.800716372567407E-008
   96.2943750000000         2.482596141840617E-008
   96.5081250000000         1.272501330746249E-007
   96.7218750000000         2.367896896860691E-007
   96.9356250000000         3.507168847028675E-007
   97.1493750000000         4.661563471690232E-007
   97.3631250000000         5.801921243258149E-007
   97.5768750000000         6.899716717958474E-007
   97.7906250000000         7.928015101141629E-007
   98.0043750000000         8.862299491941607E-007
   98.2181250000000         9.681132480567754E-007
   98.4318750000000         1.036662759735083E-006
   98.6456250000000         1.090471929600103E-006
   98.8593750000000         1.128523378791642E-006
   99.0731250000000         1.150177618938120E-006
   99.2868750000000         1.155146118939517E-006
   99.5006250000000         1.143452397675107E-006
   99.7143750000000         1.115385481590447E-006
   99.9281250000000         1.071450396540006E-006
   100.141875000000         1.012320335560895E-006
   100.355625000000         9.387947600399269E-007
   100.569375000000         8.517669778148517E-007
   100.783125000000         7.522037485428626E-007
   100.996875000000         6.411382650074004E-007
   101.210625000000         5.196765355591522E-007
   101.424375000000         3.890158442994518E-007
   101.638125000000         2.504726922354466E-007
   101.851875000000         1.055165216073318E-007
   102.065625000000        -4.419531578165078E-008
   102.279375000000        -1.967863957273626E-007
   102.493125000000        -3.501390427497272E-007
   102.706875000000        -5.018860359006251E-007
   102.920625000000        -6.494204173629925E-007
   103.134375000000        -7.899265641875169E-007
   103.348125000000        -9.204343070029075E-007
   103.561875000000        -1.037896264485083E-006
   103.775625000000        -1.139286808363058E-006
   103.989375000000        -1.221719293956759E-006
   104.203125000000        -1.282576505697395E-006
   104.416875000000        -1.319647795216653E-006
   104.630625000000        -1.331265242683512E-006
   104.844375000000        -1.316430445880593E-006
   105.058125000000        -1.274923309619359E-006
   105.271875000000        -1.207384516302820E-006
   105.485625000000        -1.115364220700391E-006
   105.699375000000        -1.001330908028151E-006
   105.913125000000        -8.686362293472662E-007
   106.126875000000        -7.214338943457666E-007
   106.340625000000        -5.645532418774620E-007
   106.554375000000        -4.033307829466204E-007
   106.768125000000        -2.434056629873846E-007
   106.981875000000        -9.048745700301524E-008
   107.195625000000         4.989316829155552E-008
   107.409375000000         1.726387647978329E-007
   107.623125000000         2.733312187243387E-007
   107.836875000000         3.484562119515821E-007
   108.050625000000         3.955930461462157E-007
   108.264375000000         4.135581038410742E-007
   108.478125000000         4.024922220046854E-007
   108.691875000000         3.638849155344672E-007
   108.905625000000         3.005315825870633E-007
   109.119375000000         2.164233840691697E-007
   109.333125000000         1.165732193544967E-007
   109.546875000000         6.784903770600254E-009
   109.760625000000        -1.066239312285516E-007
   109.974375000000        -2.171317613968038E-007
   110.188125000000        -3.183402053617788E-007
   110.401875000000        -4.043010382349821E-007
   110.615625000000        -4.698255725832159E-007
   110.829375000000        -5.107593252448538E-007
   111.043125000000        -5.242064208582981E-007
   111.256875000000        -5.086906546945292E-007
   111.470625000000        -4.642434246264712E-007
   111.684375000000        -3.924126673513052E-007
   111.898125000000        -2.961912760912586E-007
   112.111875000000        -1.798679840458141E-007
   112.325625000000        -4.880810271350617E-008
   112.539375000000         9.082445877484989E-008
   112.753125000000         2.323890450657715E-007
   112.966875000000         3.691165337960156E-007
   113.180625000000         4.944649962374908E-007
   113.394375000000         6.024631850519669E-007
   113.608125000000         6.880229197849766E-007
   113.821875000000         7.472031663943035E-007
   114.035625000000         7.774113334596848E-007
   114.249375000000         7.775308731219295E-007
   114.463125000000         7.479684662882972E-007
   114.676875000000         6.906186385447207E-007
   114.890625000000         6.087483231498706E-007
   115.104375000000         5.068083836373572E-007
   115.318125000000         3.901831670560027E-007
   115.531875000000         2.648925451109736E-007
   115.745625000000         1.372634231926759E-007
   115.959375000000         1.358921973948977E-008
   116.173125000000        -1.002037343387991E-007
   116.386875000000        -1.988645641267788E-007
   116.600625000000        -2.780843431935359E-007
   116.814375000000        -3.347066511408628E-007
   117.028125000000        -3.668714740894780E-007
   117.241875000000        -3.740856102455975E-007
   117.455625000000        -3.572169432662293E-007
   117.669375000000        -3.184142196048439E-007
   117.883125000000        -2.609580710119501E-007
   118.096875000000        -1.890527342453121E-007
   118.310625000000        -1.075710390217423E-007
   118.524375000000        -2.176760240029794E-008
   118.738125000000         6.302333145989022E-008
   118.951875000000         1.416883974439942E-007
   119.165625000000         2.096173267706537E-007
   119.379375000000         2.629515202998704E-007
   119.593125000000         2.987857226036740E-007
   119.806875000000         3.153123345935505E-007
   120.020625000000         3.119012275466612E-007
   120.234375000000         2.891115920266748E-007
   120.448125000000         2.486361696718192E-007
   120.661875000000         1.931819672827198E-007
   120.875625000000         1.262950395735480E-007
   121.089375000000         5.213996319195698E-008
   121.303125000000        -2.475295134061130E-008
   121.516875000000        -9.975797995947440E-008
   121.730625000000        -1.684262547708726E-007
   121.944375000000        -2.267444220617079E-007
   122.158125000000        -2.713650218059973E-007
   122.371875000000        -2.997956385999530E-007
   122.585625000000        -3.105363174006506E-007
   122.799375000000        -3.031577706598190E-007
   123.013125000000        -2.783163551674632E-007
   123.226875000000        -2.377054705786358E-007
   123.440625000000        -1.839467160986751E-007
   123.654375000000        -1.204276235374416E-007
   123.868125000000        -5.109586031059081E-008