  -1.60312500000000         2.203691947394186E-020
  -1.38937500000000         6.471083037459147E-019
  -1.17562500000000         5.018586130830715E-018
 -0.961875000000000         2.535372628382873E-017
 -0.748125000000000         1.005254997502062E-016
 -0.534375000000000         3.294657123777688E-016
 -0.320625000000000         9.044967005706137E-016
 -0.106875000000000         2.071213780930741E-015
  0.106875000000000         3.863599620056988E-015
  0.320625000000000         5.407505331837413E-015
  0.534375000000000         3.637338194105294E-015
  0.748125000000000        -8.581457814669565E-015
  0.961875000000000        -4.476284863467714E-014
   1.17562500000000        -1.272698340074829E-013
   1.38937500000000        -2.896179741958270E-013
   1.60312500000000        -5.783682648449949E-013
   1.81687500000000        -1.054220294074532E-012
   2.03062500000000        -1.792047659092978E-012
   2.24437500000000        -2.879582370716565E-012
   2.45812500000000        -4.414657950448425E-012
   2.67187500000000        -6.500836029688551E-012
   2.88562500000000        -9.241944800853062E-012
   3.09937500000000        -1.273552850766108E-011
   3.31312500000000        -1.706600013104291E-011
   3.52687500000000        -2.229841284485519E-011
   3.74062500000000        -2.847296212492511E-011
   3.95437500000000        -3.560137883213927E-011
   4.16812500000000        -4.366541944911536E-011
   4.38187500000000        -5.261784362944845E-011
   4.59562500000000        -6.238550481687357E-011
   4.80937500000000        -7.287428526055471E-011
   5.02312500000000        -8.397556562408998E-011
   5.23687500000000        -9.557313393502289E-011
   5.45062500000000        -1.075500351950253E-010
   5.66437500000000        -1.197943983215835E-010
   5.87812500000000        -1.322042511682367E-010
   6.09187500000000        -1.446908195887806E-010
   6.30562500000000        -1.571801573333200E-010
   6.51937500000000        -1.696141012908936E-010
   6.73312500000000        -1.819500824037070E-010
   6.94687500000000        -1.941606609867284E-010
   7.16062500000000        -2.062328372267236E-010
   7.37437500000000        -2.181675371426084E-010
   7.58812500000000        -2.299790660718853E-010
   7.80187500000000        -2.416939489801358E-010
   8.01562500000000        -2.533491264159253E-010
   8.22937500000000        -2.649890058238837E-010
   8.44312500000000        -2.766612073588856E-010
   8.65687500000000        -2.884109670548810E-010
   8.87062500000000        -3.002749602416500E-010
   9.08437500000000        -3.122745613985068E-010
   9.29812500000000        -3.244098520830429E-010
   9.51187500000000        -3.366555355092689E-010
   9.72562500000000        -3.489592829255628E-010
   9.93937500000000        -3.612435864272193E-010
   10.1531250000000        -3.734110516858579E-010
   10.3668750000000        -3.853525694149675E-010
   10.5806250000000        -3.969578350423191E-010
   10.7943750000000        -4.081271481060874E-010
   11.0081250000000        -4.187824184232524E-010
   11.2218750000000        -4.288761011863281E-010
   11.4356250000000        -4.383970372273422E-010
   11.6493750000000        -4.473722683236904E-010
   11.8631250000000        -4.558644306073418E-010
   12.0768750000000        -4.639655205205016E-010
   12.2906250000000        -4.717879894841062E-010
   12.5043750000000        -4.794541741195044E-010
   12.7181250000000        -4.870859867780568E-010
   12.9318750000000        -4.947959460220850E-010
   13.1456250000000        -5.026805931769827E-010
   13.3593750000000        -5.108167908326766E-010
   13.5731250000000        -5.192607006790715E-010
   13.7868750000000        -5.280491256925055E-010
   14.0006250000000        -5.372022088911927E-010
   14.2143750000000        -5.467265422715042E-010
   14.4281250000000        -5.566179902105621E-010
   14.6418750000000        -5.668635161347004E-010
   14.8556250000000        -5.774420226166088E-010
   15.0693750000000        -5.883245937897832E-010
   15.2831250000000        -5.994748069806895E-010
   15.4968750000000        -6.108496929810897E-010
   15.7106250000000        -6.224025561916296E-010
   15.9243750000000        -6.340876867774986E-010
   16.1381250000000        -6.458670173031161E-010
   16.3518750000000        -6.577186596785674E-010
   16.5656250000000        -6.696457511398265E-010
   16.7793750000000        -6.816842130420843E-010
   16.9931250000000        -6.939078484774786E-010
   17.2068750000000        -7.064294148795336E-010
   17.4206250000000        -7.193967810084452E-010
   17.6343750000000        -7.329836249974693E-010
   17.8481250000000        -7.473749099531507E-010
   18.0618750000000        -7.627488222666296E-010
   18.2756250000000        -7.792571923075834E-010
   18.4893750000000        -7.970064559042439E-010
   18.7031250000000        -8.160418163670096E-010
   18.9168750000000        -8.363371948760704E-010
   19.1306250000000        -8.577923712227030E-010
   19.3443750000000        -8.802379752889685E-010
   19.5581250000000        -9.034486723289993E-010
   19.7718750000000        -9.271626983755166E-010
   19.9856250000000        -9.511058687214048E-010
   20.1993750000000        -9.750173326795686E-010
   20.4131250000000        -9.986738829370658E-010
   20.6268750000000        -1.021910162871221E-009
   20.8406250000000        -1.044632416368121E-009
   21.0543750000000        -1.066824238943188E-009
   21.2681250000000        -1.088543862420429E-009
   21.4818750000000        -1.109914136572926E-009
   21.6956250000000        -1.131106274883710E-009
   21.9093750000000        -1.152319897033936E-009
   22.1231250000000        -1.173762054775595E-009
   22.3368750000000        -1.195627901273553E-009
   22.5506250000000        -1.218085029556951E-009
   22.7643750000000        -1.241263059383821E-009
   22.9781250000000        -1.265249161491778E-009
   23.1918750000000        -1.290088680593718E-009
   23.4056250000000        -1.315790480981545E-009
   23.6193750000000        -1.342334997030748E-009
   23.8331250000000        -1.369682761470114E-009
   24.0468750000000        -1.397782276829998E-009
   24.2606250000000        -1.426575720514748E-009
   24.4743750000000        -1.456001595332999E-009
   24.6881250000000        -1.485994886037859E-009
   24.9018750000000        -1.516484947883941E-009
   25.1156250000000        -1.547392598115477E-009
   25.3293750000000        -1.578628142981641E-009
   25.5431250000000        -1.610091118387025E-009
   25.7568750000000        -1.641672957180666E-009
   25.9706250000000        -1.673263179130689E-009
   26.1843750000000        -1.704758187843340E-009
   26.3981250000000        -1.736072166036574E-009
   26.6118750000000        -1.767148574918429E-009
   26.8256250000000        -1.797969990850000E-009
   27.0393750000000        -1.828565034713350E-009
   27.2531250000000        -1.859011102105441E-009
   27.4668750000000        -1.889431719821552E-009
   27.6806250000000        -1.919988551286584E-009
   27.8943750000000        -1.950869026558128E-009
   28.1081250000000        -1.982270494450206E-009
   28.3218750000000        -2.014382606051328E-009
   28.5356250000000        -2.047370035948195E-009
   28.7493750000000        -2.081357166045551E-009
   28.9631250000000        -2.116416271267938E-009
   29.1768750000000        -2.152560788188146E-009
   29.3906250000000        -2.189743704626933E-009
   29.6043750000000        -2.227861357208120E-009
   29.8181250000000        -2.266762555309282E-009
   30.0318750000000        -2.306261518571720E-009
   30.2456250000000        -2.346153688495487E-009
   30.4593750000000        -2.386233374504698E-009
   30.6731250000000        -2.426310940438261E-009
   30.8868750000000        -2.466228546355225E-009
   31.1006250000000        -2.505872709882011E-009
   31.3143750000000        -2.545182222689926E-009
   31.5281250000000        -2.584151192985931E-009
   31.7418750000000        -2.622826272631272E-009
   31.9556250000000        -2.661298319470637E-009
   32.1693750000000        -2.699689718636783E-009
   32.3831250000000        -2.738138605851595E-009
   32.5968750000000        -2.776781872122340E-009
   32.8106250000000        -2.815739559736271E-009
   33.0243750000000        -2.855102560758860E-009
   33.2381250000000        -2.894925508468748E-009
   33.4518750000000        -2.935226106664372E-009
   33.6656250000000        -2.975990927705713E-009
   33.8793750000000        -3.017186881594545E-009
   34.0931250000000        -3.058776248328874E-009
   34.3068750000000        -3.100733093021008E-009
   34.5206250000000        -3.143057848399969E-009
   34.7343750000000        -3.185787352818014E-009
   34.9481250000000        -3.228998691277038E-009
   35.1618750000000        -3.272805747758949E-009
   35.3756250000000        -3.317348908719940E-009
   35.5893750000000        -3.362779946249184E-009
   35.8031250000000        -3.409244756535611E-009
   36.0168750000000        -3.456867171433537E-009
   36.2306250000000        -3.505736951868525E-009
   36.4443750000000        -3.555904331877277E-009
   36.6581250000000        -3.607382155002849E-009
   36.8718750000000        -3.660154840880804E-009
   37.0856250000000        -3.714192357696257E-009
   37.2993750000000        -3.769465559100307E-009
   37.5131250000000        -3.825959697855686E-009
   37.7268750000000        -3.883682342307994E-009
   37.9406250000000        -3.942663184774660E-009
   38.1543750000000        -4.002945796950760E-009
   38.3681250000000        -4.064571944226387E-009
   38.5818750000000        -4.127561969391791E-009
   38.7956250000000        -4.191895300417513E-009
   39.0093750000000        -4.257495833585869E-009
   39.2231250000000        -4.324226688097942E-009
   39.4368750000000        -4.391896254679901E-009
   39.6506250000000        -4.460276569408909E-009
   39.8643750000000        -4.529130834526569E-009
   40.0781250000000        -4.598245878217290E-009
   40.2918750000000        -4.667463732694383E-009
   40.5056250000000        -4.736705299147288E-009
   40.7193750000000        -4.805981086646444E-009
   40.9331250000000        -4.875385406111972E-009
   41.1468750000000        -4.945074586069411E-009
   41.3606250000000        -5.015231953115807E-009
   41.5743750000000        -5.086026406525431E-009
   41.7881250000000        -5.157573298073282E-009
   42.0018750000000        -5.229905893317988E-009
   42.2156250000000        -5.302965543591770E-009
   42.4293750000000        -5.376614614794243E-009
   42.6431250000000        -5.450672077565231E-009
   42.8568750000000        -5.524966340467685E-009
   43.0706250000000        -5.599395899885943E-009
   43.2843750000000        -5.673984952242552E-009
   43.4981250000000        -5.748919877282982E-009
   43.7118750000000        -5.824554526676587E-009
   43.9256250000000        -5.901376810970748E-009
   44.1393750000000        -5.979935023674882E-009
   44.3531250000000        -6.060730678234359E-009
   44.5668750000000        -6.144092524479102E-009
   44.7806250000000        -6.230051917059252E-009
   44.9943750000000        -6.318244172002554E-009
   45.2081250000000        -6.407859703663926E-009
   45.4218750000000        -6.497664312886439E-009
   45.6356250000000        -6.586099368957100E-009
   45.8493750000000        -6.671460715379139E-009
   46.0631250000000        -6.752141680028527E-009
   46.2768750000000        -6.826912367341405E-009
   46.4906250000000        -6.895196595694994E-009
   46.7043750000000        -6.957301293876927E-009
   46.9181250000000        -7.014553601665631E-009
   47.1318750000000        -7.069307340747283E-009
   47.3456250000000        -7.124794095093967E-009
   47.5593750000000        -7.184814399214914E-009
   47.7731250000000        -7.253287161688522E-009
   47.9868750000000        -7.333700254574507E-009
   48.2006250000000        -7.428526686668283E-009
   48.4143750000000        -7.538686299934203E-009
   48.6281250000000        -7.663139626188520E-009
   48.8418750000000        -7.798695242499843E-009
   49.0556250000000        -7.940094877238430E-009
   49.2693750000000        -8.080410715003297E-009
   49.4831250000000        -8.211750936479531E-009
   49.6968750000000        -8.326224297635959E-009
   49.9106250000000        -8.417071263247730E-009
   50.1243750000000        -8.479829511225907E-009
   50.3381250000000        -8.513375119728916E-009
   50.5518750000000        -8.520673604278505E-009
   50.7656250000000        -8.509086608380327E-009
   50.9793750000000        -8.490118143633590E-009
   51.1931250000000        -8.478542655987563E-009
   51.4068750000000        -8.490933065976963E-009
   51.6206250000000        -8.543693356068777E-009
   51.8343750000000        -8.650784875059669E-009
   52.0481250000000        -8.821408360440012E-009
   52.2618750000000        -9.057952208193415E-009
   52.4756250000000        -9.354529924596623E-009
   52.6893750000000        -9.696401067778589E-009
   52.9031250000000        -1.006049669835200E-008
   53.1168750000000        -1.041715380589844E-008
   53.3306250000000        -1.073301616312283E-008
   53.5443750000000        -1.097489419977979E-008
   53.7581250000000        -1.111421440389965E-008
   53.9718750000000        -1.113155241369788E-008
   54.1856250000000        -1.102065453272214E-008
   54.3993750000000        -1.079133117539635E-008
   54.6131250000000        -1.047066344691830E-008
   54.8268750000000        -1.010210592035055E-008
   55.0406250000000        -9.742287288995592E-009
   55.2543750000000        -9.455587987370173E-009
   55.4681250000000        -9.306881609693849E-009
   55.6818750000000        -9.353126740571624E-009
   55.8956250000000        -9.634747992236545E-009
   56.1093750000000        -1.016790818067896E-008
   56.3231250000000        -1.093881411635630E-008
   56.5368750000000        -1.190109307592044E-008
   56.7506250000000        -1.297702151767669E-008
   56.9643750000000        -1.406299220358330E-008
   57.1781250000000        -1.503910728434386E-008
   57.3918750000000        -1.578223196736428E-008
   57.6056250000000        -1.618130199729895E-008
   57.8193750000000        -1.615322363509182E-008
   58.0331250000000        -1.565740200730104E-008
   58.2468750000000        -1.470684741638894E-008
   58.4606250000000        -1.337397574750684E-008
   58.6743750000000        -1.178964933709727E-008
   58.8881250000000        -1.013467773495004E-008
   59.1018750000000        -8.623856711194001E-009
   59.3156250000000        -7.483582297478932E-009
   59.5293750000000        -6.925024166593082E-009
   59.7431250000000        -7.115657776377180E-009
   59.9568750000000        -8.152516202953764E-009
   60.1706250000000        -1.004072987358501E-008
   60.3843750000000        -1.268070667053343E-008
   60.5981250000000        -1.586664227631014E-008
   60.8118750000000        -1.929797231184693E-008
   61.0256250000000        -2.260396830360514E-008
   61.2393750000000        -2.538007922395918E-008
   61.4531250000000        -2.723300305452797E-008
   61.6668750000000        -2.783003949168082E-008
   61.8806250000000        -2.694722239462840E-008
   62.0943750000000        -2.451023080437961E-008
   62.3081250000000        -2.062225589061783E-008
   62.5218750000000        -1.557390715629642E-008
   62.7356250000000        -9.831846547734010E-009
   62.9493750000000        -4.005023692620878E-009
   63.1631250000000         1.210054879661146E-009
   63.3768750000000         5.100922157476126E-009
   63.5906250000000         7.021049429967192E-009
   63.8043750000000         6.473541121457905E-009
   64.0181250000000         3.186982697193409E-009
   64.2318750000000        -2.826313727449907E-009
   64.4456250000000        -1.123839279700788E-008
   64.6593750000000        -2.140663446174566E-008
   64.8731250000000        -3.241104650775239E-008
   65.0868750000000        -4.312742788067838E-008
   65.3006250000000        -5.233177069217283E-008
   65.5143750000000        -5.882721260927686E-008
   65.7281250000000        -6.158140966069814E-008
   65.9418750000000        -5.985983247644871E-008
   66.1556250000000        -5.333956572789962E-008
   66.3693750000000        -4.218894356061897E-008
   66.5831250000000        -2.710084601808090E-008
   66.7968750000000        -9.271569643416739E-009
   67.0106250000000         9.677460695535581E-009
   67.2243750000000         2.783175920526187E-008
   67.4381250000000         4.316001190229377E-008
   67.6518750000000         5.371919446900923E-008
   67.8656250000000         5.786888328853673E-008
   68.0793750000000         5.447249405387203E-008
   68.2931250000000         4.306286817475678E-008
   68.5068750000000         2.395176353101255E-008
   68.7206250000000        -1.732684243143479E-009
   68.9343750000000        -3.208992232890438E-008
   69.1481250000000        -6.457377996004314E-008
   69.3618750000000        -9.619490239243112E-008
   69.5756250000000        -1.237832534970794E-007
   69.7893750000000        -1.442879371872816E-007
   70.0031250000000        -1.550864194477553E-007
   70.2168750000000        -1.542727259970579E-007
   70.4306250000000        -1.408947278550680E-007
   70.6443750000000        -1.151142709498735E-007
   70.8581250000000        -7.827038073265404E-008
   71.0718750000000        -3.283448758356854E-008
   71.2856250000000         1.774327400646830E-008
   71.4993750000000         6.928715289009062E-008
   71.7131250000000         1.172289183899948E-007
   71.9268750000000         1.569936074423794E-007
   72.1406250000000         1.844048566771477E-007
   72.3543750000000         1.960742846014689E-007
   72.5681250000000         1.897401828542071E-007
   72.7818750000000         1.645247515659668E-007
   72.9956250000000         1.210858281931064E-007
   73.2093750000000         6.164780113805392E-008
   73.4231250000000        -1.009370923702956E-008
   73.6368750000000        -8.918872126726117E-008
   73.8506250000000        -1.697572186111845E-007
   74.0643750000000        -2.453988499430242E-007
   74.2781250000000        -3.096598824854725E-007
   74.4918750000000        -3.565254754891622E-007
   74.7056250000000        -3.809037675314466E-007
   74.9193750000000        -3.790687610352649E-007
   75.1331250000000        -3.490312172696453E-007
   75.3468750000000        -2.908103821392945E-007
   75.5606250000000        -2.065840211659616E-007
   75.7743750000000        -1.006997178586876E-007
   75.9881250000000         2.046339870421203E-008
   76.2018750000000         1.487863491308195E-007
   76.4156250000000         2.748514052317939E-007
   76.6293750000000         3.885197125564715E-007
   76.8431250000000         4.796226888860964E-007
   77.0568750000000         5.387338244886354E-007
   77.2706250000000         5.579766527376005E-007
   77.4843750000000         5.318144584910302E-007
   77.6981250000000         4.577589581581494E-007
   77.9118750000000         3.369301727521969E-007
   78.1256250000000         1.743995434683756E-007
   78.3393750000000        -2.074562541230513E-008
   78.5531250000000        -2.356650988994327E-007
   78.7668750000000        -4.543840168414763E-007
   78.9806250000000        -6.587669193062324E-007
   79.1943750000000        -8.298147617983147E-007
   79.4081250000000        -9.492162006786255E-007
   79.6218750000000        -1.001048904320872E-006
   79.8356250000000        -9.734955524818398E-007
   80.0493750000000        -8.604166931827844E-007
   80.2631250000000        -6.626126299689390E-007
   80.4768750000000        -3.886121036988676E-007
   80.6906250000000        -5.484851680882494E-008
   80.9043750000000         3.148750639049268E-007
   81.1181250000000         6.906747236521492E-007
   81.3318750000000         1.038602895379238E-006
   81.5456250000000         1.323294181757422E-006
   81.7593750000000         1.511066428420740E-006
   81.9731250000000         1.573238449769283E-006
   82.1868750000000         1.489376653780970E-006
   82.4006250000000         1.250156519271470E-006
   82.6143750000000         8.595265370923486E-007
   82.8281250000000         3.358945086291511E-007
   83.0418750000000        -2.878812166018786E-007
   83.2556250000000        -9.658232287022089E-007
   83.4693750000000        -1.641506466353711E-006
   83.6831250000000        -2.251964472844558E-006
   83.8968750000000        -2.732602115532521E-006
   84.1106250000000        -3.022773657426882E-006
   84.3243750000000        -3.071594313098695E-006
   84.5381250000000        -2.843494651286511E-006
   84.7518750000000        -2.323008021207184E-006
   84.9656250000000        -1.518305923346807E-006
   85.1793750000000        -4.630654497167544E-007
   85.3931250000000         7.836368881269732E-007
   85.6068750000000         2.139566742198562E-006
   85.8206250000000         3.503703740083789E-006
   86.0343750000000         4.762561290790806E-006
   86.2481250000000         5.798099409348709E-006
   86.4618750000000         6.496721695206795E-006
   86.6756250000000         6.758726024706563E-006
   86.8893750000000         6.507500510335797E-006
   87.1031250000000         5.697729935505644E-006
   87.3168750000000         4.321907448223912E-006
   87.5306250000000         2.414531810259995E-006
   87.7443750000000         5.350768199501618E-008
   87.9581250000000        -2.641553003902792E-006
   88.1718750000000        -5.514218328764771E-006
   88.3856250000000        -8.379172701698241E-006
   88.5993750000000        -1.103283214657330E-005
   88.8131250000000        -1.326605379672141E-005
   89.0268750000000        -1.487817204634684E-005
   89.2406250000000        -1.569145748134359E-005
   89.4543750000000        -1.556501664297187E-005
   89.6681250000000        -1.440713900272322E-005
   89.8818750000000        -1.218515599040036E-005
   90.0956250000000        -8.932004393283563E-006
   90.3093750000000        -4.748876757257916E-006
   90.5231250000000         1.964164884750517E-007
   90.7368750000000         5.675470024603727E-006
   90.9506250000000         1.140949269430610E-005
   91.1643750000000         1.708321131973001E-005
   91.3781250000000         2.236171123311578E-005
   91.5918750000000         2.690923502689219E-005
   91.8056250000000         3.040880493617399E-005
   92.0193750000000         3.258145612897367E-005
   92.2331250000000         3.320387574247802E-005
   92.4468750000000         3.212333666452679E-005
   92.6606250000000         2.926898948236362E-005
   92.8743750000000         2.465881736630049E-005
   93.0881250000000         1.840184755210272E-005
   93.3018750000000         1.069552575210951E-005
   93.5156250000000         1.818470206189010E-006
   93.7293750000000        -7.880895617790203E-006
   93.9431250000000        -1.799910141295880E-005
   94.1568750000000        -2.809488676290821E-005
   94.3706250000000        -3.770798027248867E-005
   94.5843750000000        -4.637842343704961E-005
   94.7981250000000        -5.366553482141041E-005
   95.0118750000000        -5.916574385625111E-005
   95.2256250000000        -6.252869704486875E-005
   95.4393750000000        -6.347122805699010E-005
   95.6531250000000        -6.178896173908408E-005
   95.8668750000000        -5.736546762054172E-005
   96.0806250000000        -5.017897367859441E-005
   96.2943750000000        -4.030668652767685E-005
   96.5081250000000        -2.792673990738824E-005
   96.7218750000000        -1.331771929299349E-005
   96.9356250000000         3.144394476630244E-006
   97.1493750000000         2.099212979423732E-005
   97.3631250000000         3.967563041304488E-005
   97.5768750000000         5.857534940739955E-005
   97.7906250000000         7.701867253031072E-005
   98.0043750000000         9.430067367554933E-005
   98.2181250000000         1.097089670979846E-004
   98.4318750000000         1.225522919669926E-004
   98.6456250000000         1.321920665906752E-004
   98.8593750000000         1.380757165995478E-004
   99.0731250000000         1.397701575694718E-004
   99.2868750000000         1.369934476321774E-004
   99.5006250000000         1.296423696772353E-004
   99.7143750000000         1.178136008689696E-004
   99.9281250000000         1.018162140480308E-004
   100.141875000000         8.217355077277033E-005
   100.355625000000         5.961301046723995E-005
   100.569375000000         3.504299544000809E-005
   100.783125000000         9.517098547279397E-006
   100.996875000000        -1.581343766793092E-005
   101.210625000000        -3.975699491644193E-005
   101.424375000000        -6.114567845820723E-005
   101.638125000000        -7.890255690158263E-005
   101.851875000000        -9.210779152240330E-005
   102.065625000000        -1.000591130203231E-004
   102.279375000000        -1.023221337582440E-004
   102.493125000000        -9.876635835119943E-005
   102.706875000000        -8.958347251243918E-005
   102.920625000000        -7.528551963807757E-005
   103.134375000000        -5.668186054775222E-005
   103.348125000000        -3.483527427172397E-005
   103.561875000000        -1.099909800052494E-005
   103.775625000000         1.346118912327041E-005
   103.989375000000         3.715717725161455E-005
   104.203125000000         5.877167780949191E-005
   104.416875000000         7.715123312279854E-005
   104.630625000000         9.139011707168243E-005
   104.844375000000         1.008991748584741E-004
   105.058125000000         1.054535821312748E-004
   105.271875000000         1.052148346134506E-004
   105.485625000000         1.007239509399297E-004
   105.699375000000         9.286488727400168E-005
   105.913125000000         8.279939221406954E-005
   106.126875000000         7.187681753166478E-005
   106.340625000000         6.152457075171897E-005
   106.554375000000         5.312677141508211E-005
   106.768125000000         4.790008533125728E-005
   106.981875000000         4.677651519326923E-005
   107.195625000000         5.030301393042205E-005
   107.409375000000         5.856710070465147E-005
   107.623125000000         7.115619813840841E-005
   107.836875000000         8.715623553867720E-005
   108.050625000000         1.051923013270435E-004
   108.264375000000         1.235109601798630E-004
   108.478125000000         1.401005039258638E-004
   108.691875000000         1.528421374867618E-004
   108.905625000000         1.596821800334123E-004
   109.119375000000         1.588130436893272E-004
   109.333125000000         1.488492605502645E-004
   109.546875000000         1.289843320811611E-004
   109.760625000000         9.911476995312998E-005
   109.974375000000         5.991939715211227E-005
   110.188125000000         1.288470656969111E-005
   110.401875000000        -3.972933209754495E-005
   110.615625000000        -9.498440843481255E-005
   110.829375000000        -1.494168014117909E-004
   111.043125000000        -1.992404321626157E-004
   111.256875000000        -2.405882157300814E-004
   111.470625000000        -2.697764412047865E-004
   111.684375000000        -2.835744595343233E-004
   111.898125000000        -2.794607269170370E-004
   112.111875000000        -2.558463726517726E-004
   112.325625000000        -2.122489660093309E-004
   112.539375000000        -1.494019740283220E-004
   112.753125000000        -6.928935663423863E-005
   112.966875000000         2.490042643817848E-005
   113.180625000000         1.289013539373631E-004
   113.394375000000         2.375725524338925E-004
   113.608125000000         3.451663025000261E-004
   113.821875000000         4.456461789367756E-004
   114.035625000000         5.330364235360825E-004
   114.249375000000         6.017811315976408E-004
   114.463125000000         6.470907227528101E-004
   114.676875000000         6.652535484005383E-004
   114.890625000000         6.538923433201127E-004
   115.104375000000         6.121484365359554E-004
   115.318125000000         5.407809823790546E-004
   115.531875000000         4.421736665484627E-004
   115.745625000000         3.202470382523054E-004
   115.959375000000         1.802804420992383E-004
   116.173125000000         2.865309195022208E-005
   116.386875000000        -1.274812152339346E-004
   116.600625000000        -2.805672174979292E-004
   116.814375000000        -4.230477530452106E-004
   117.028125000000        -5.477668702455057E-004
   117.241875000000        -6.483534786943513E-004
   117.455625000000        -7.195638344621209E-004
   117.669375000000        -7.575637412009438E-004
   117.883125000000        -7.601350415443402E-004
   118.096875000000        -7.267955171156531E-004
   118.310625000000        -6.588264102370276E-004
   118.524375000000        -5.592071000971037E-004
   118.738125000000        -4.324616812772495E-004
   118.951875000000        -2.844269921433960E-004
   119.165625000000        -1.219557517990431E-004
   119.379375000000         4.742833143598743E-005
   119.593125000000         2.159044720843076E-004
   119.806875000000         3.757377261671415E-004
   120.020625000000         5.196510413335325E-004
   120.234375000000         6.411677830791632E-004
   120.448125000000         7.349082573888553E-004
   120.661875000000         7.968267081677255E-004
   120.875625000000         8.243788005138034E-004
   121.089375000000         8.166134824117627E-004
   121.303125000000         7.741871193593322E-004
   121.516875000000         6.993017018315423E-004
   121.730625000000         5.955725406039347E-004
   121.944375000000         4.678340279450909E-004
   122.158125000000         3.218946290233120E-004
   122.371875000000         1.642541925734440E-004
   122.585625000000         1.797886961937595E-006
   122.799375000000        -1.585184324552456E-004
   123.013125000000        -3.099768140595850E-004
   123.226875000000        -4.463859890894502E-004
   123.440625000000        -5.623379847425135E-004
   123.654375000000        -6.534221180574958E-004
   123.868125000000        -7.163882032158607E-004