  -1.60312500000000         1.922277927296833E-024
  -1.38937500000000         1.920935488892821E-024
  -1.17562500000000         1.768411254812249E-024
 -0.961875000000000         5.719788190470940E-025
 -0.748125000000000        -5.585257248402916E-024
 -0.534375000000000        -3.075577705369681E-023
 -0.320625000000000        -1.170247153713967E-022
 -0.106875000000000        -3.707316654953747E-022
  0.106875000000000        -1.020546671851468E-021
  0.320625000000000        -2.489457177084523E-021
  0.534375000000000        -5.456116602262265E-021
  0.748125000000000        -1.087101639724068E-020
  0.961875000000000        -1.989207776402688E-020
   1.17562500000000        -3.371152262514475E-020
   1.38937500000000        -5.325560293676207E-020
   1.60312500000000        -7.874421827884411E-020
   1.81687500000000        -1.091004589323289E-019
   2.03062500000000        -1.412278322732106E-019
   2.24437500000000        -1.691700437025543E-019
   2.45812500000000        -1.832168645395308E-019
   2.67187500000000        -1.690090683462097E-019
   2.88562500000000        -1.067593611141654E-019
   3.09937500000000         2.935659391634515E-020
   3.31312500000000         2.714888054472012E-019
   3.52687500000000         6.580584694261690E-019
   3.74062500000000         1.233283380127819E-018
   3.95437500000000         2.046278635451890E-018
   4.16812500000000         3.149788167423399E-018
   4.38187500000000         4.598614030252971E-018
   4.59562500000000         6.447906482916968E-018
   4.80937500000000         8.751420971114351E-018
   5.02312500000000         1.155994538175834E-017
   5.23687500000000         1.492002851853305E-017
   5.45062500000000         1.887311938099349E-017
   5.66437500000000         2.345517868404234E-017
   5.87812500000000         2.869673053494662E-017
   6.09187500000000         3.462332330049149E-017
   6.30562500000000         4.125622092689320E-017
   6.51937500000000         4.861319114285570E-017
   6.73312500000000         5.670922086739395E-017
   6.94687500000000         6.555697004969709E-017
   7.16062500000000         7.516690492472581E-017
   7.37437500000000         8.554701114825918E-017
   7.58812500000000         9.670219257542268E-017
   7.80187500000000         1.086333953285774E-016
   8.01562500000000         1.213366545289126E-016
   8.22937500000000         1.348022131254150E-016
   8.44312500000000         1.490139223960669E-016
   8.65687500000000         1.639490147844396E-016
   8.87062500000000         1.795783524972187E-016
   9.08437500000000         1.958671295539514E-016
   9.29812500000000         2.127759122709247E-016
   9.51187500000000         2.302618886947744E-016
   9.72562500000000         2.482801179586354E-016
   9.93937500000000         2.667846047305036E-016
   10.1531250000000         2.857290608568746E-016
   10.3668750000000         3.050672566397095E-016
   10.5806250000000         3.247529843004187E-016
   10.7943750000000         3.447397271868628E-016
   11.0081250000000         3.649802278945121E-016
   11.2218750000000         3.854261128159697E-016
   11.4356250000000         4.060278145020493E-016
   11.6493750000000         4.267349145803703E-016
   11.8631250000000         4.474969943856169E-016
   12.0768750000000         4.682649208576657E-016
   12.2906250000000         4.889924639250630E-016
   12.5043750000000         5.096379758704784E-016
   12.7181250000000         5.301658856830399E-016
   12.9318750000000         5.505477064109473E-016
   13.1456250000000         5.707623455659057E-016
   13.3593750000000         5.907955853021088E-016
   13.5731250000000         6.106387297685811E-016
   13.7868750000000         6.302865412665151E-016
   14.0006250000000         6.497347172297115E-016
   14.2143750000000         6.689772257442381E-016
   14.4281250000000         6.880038610053591E-016
   14.6418750000000         7.067983314974101E-016
   14.8556250000000         7.253371495427628E-016
   15.0693750000000         7.435894556231083E-016
   15.2831250000000         7.615177954334291E-016
   15.4968750000000         7.790797459034014E-016
   15.7106250000000         7.962301755078064E-016
   15.9243750000000         8.129239086231644E-016
   16.1381250000000         8.291184742428178E-016
   16.3518750000000         8.447767326087252E-016
   16.5656250000000         8.598691619569458E-016
   16.7793750000000         8.743756948526179E-016
   16.9931250000000         8.882870306359408E-016
   17.2068750000000         9.016054083039811E-016
   17.4206250000000         9.143448745142671E-016
   17.6343750000000         9.265310622223566E-016
   17.8481250000000         9.382004848723990E-016
   18.0618750000000         9.493993333457992E-016
   18.2756250000000         9.601817735427686E-016
   18.4893750000000         9.706077426434063E-016
   18.7031250000000         9.807402685982174E-016
   18.9168750000000         9.906423985040261E-016
   19.1306250000000         1.000373930728244E-015
   19.3443750000000         1.009988145772318E-015
   19.5581250000000         1.019528832938628E-015
   19.7718750000000         1.029027929516237E-015
   19.9856250000000         1.038503977129277E-015
   20.1993750000000         1.047961636941548E-015
   20.4131250000000         1.057392265947156E-015
   20.6268750000000         1.066775514116768E-015
   20.8406250000000         1.076081700006241E-015
   21.0543750000000         1.085274664950038E-015
   21.2681250000000         1.094314700362275E-015
   21.4818750000000         1.103161202636169E-015
   21.6956250000000         1.111774751349349E-015
   21.9093750000000         1.120118413349338E-015
   22.1231250000000         1.128158263550530E-015
   22.3368750000000         1.135863216295773E-015
   22.5506250000000         1.143204426569053E-015
   22.7643750000000         1.150154520918751E-015
   22.9781250000000         1.156686992846578E-015
   23.1918750000000         1.162775956093148E-015
   23.4056250000000         1.168396357002824E-015
   23.6193750000000         1.173524636795611E-015
   23.8331250000000         1.178139637719472E-015
   24.0468750000000         1.182223468438639E-015
   24.2606250000000         1.185762031490453E-015
   24.4743750000000         1.188744908459115E-015
   24.6881250000000         1.191164416785431E-015
   24.9018750000000         1.193013828810582E-015
   25.1156250000000         1.194284851125374E-015
   25.3293750000000         1.194964698796986E-015
   25.5431250000000         1.195033156874775E-015
   25.7568750000000         1.194460074333921E-015
   25.9706250000000         1.193203695532227E-015
   26.1843750000000         1.191210130532907E-015
   26.3981250000000         1.188414032847219E-015
   26.6118750000000         1.184740464144676E-015
   26.8256250000000         1.180107625333622E-015
   27.0393750000000         1.174430070972074E-015
   27.2531250000000         1.167621943019347E-015
   27.4668750000000         1.159599796808616E-015
   27.6806250000000         1.150284633151614E-015
   27.8943750000000         1.139602982809485E-015
   28.1081250000000         1.127487025260980E-015
   28.3218750000000         1.113873890388290E-015
   28.5356250000000         1.098704433279322E-015
   28.7493750000000         1.081921852699437E-015
   28.9631250000000         1.063470473711189E-015
   29.1768750000000         1.043294971268592E-015
   29.3906250000000         1.021340195269549E-015
   29.6043750000000         9.975515626503886E-016
   29.8181250000000         9.718759147129421E-016
   30.0318750000000         9.442625924584884E-016
   30.2456250000000         9.146644448917949E-016
   30.4593750000000         8.830385174144876E-016
   30.6731250000000         8.493462500108208E-016
   30.8868750000000         8.135530639789621E-016
   31.1006250000000         7.756274313098847E-016
   31.3143750000000         7.355395141862294E-016
   31.5281250000000         6.932596238206058E-016
   31.7418750000000         6.487567423347666E-016
   31.9556250000000         6.019973205010713E-016
   32.1693750000000         5.529445145297206E-016
   32.3831250000000         5.015579608347732E-016
   32.5968750000000         4.477940572893730E-016
   32.8106250000000         3.916066850822180E-016
   33.0243750000000         3.329482383112680E-016
   33.2381250000000         2.717707977625437E-016
   33.4518750000000         2.080273293974793E-016
   33.6656250000000         1.416727966295061E-016
   33.8793750000000         7.266512824723965E-017
   34.0931250000000         9.660217680264657E-019
   34.3068750000000        -7.345842502096482E-017
   34.5206250000000        -1.506372087891553E-016
   34.7343750000000        -2.305940889345273E-016
   34.9481250000000        -3.133474021727304E-016
   35.1618750000000        -3.989100825966584E-016
   35.3756250000000        -4.872899077986378E-016
   35.5893750000000        -5.784900290718221E-016
   35.8031250000000        -6.725097537190039E-016
   36.0168750000000        -7.693455676461259E-016
   36.2306250000000        -8.689922925421765E-016
   36.4443750000000        -9.714442920134376E-016
   36.6581250000000        -1.076696572867328E-015
   36.8718750000000        -1.184745694419131E-015
   37.0856250000000        -1.295590413296590E-015
   37.2993750000000        -1.409232079086226E-015
   37.5131250000000        -1.525674885787071E-015
   37.7268750000000        -1.644926080742601E-015
   37.9406250000000        -1.766996360212984E-015
   38.1543750000000        -1.891900594408081E-015
   38.3681250000000        -2.019658964324178E-015
   38.5818750000000        -2.150298546508906E-015
   38.7956250000000        -2.283855156366234E-015
   39.0093750000000        -2.420375250421167E-015
   39.2231250000000        -2.559917485582899E-015
   39.4368750000000        -2.702553571680471E-015
   39.6506250000000        -2.848368075474312E-015
   39.8643750000000        -2.997456923342780E-015
   40.0781250000000        -3.149924639478224E-015
   40.2918750000000        -3.305880453037358E-015
   40.5056250000000        -3.465433742976380E-015
   40.7193750000000        -3.628689399353085E-015
   40.9331250000000        -3.795743791579469E-015
   41.1468750000000        -3.966682010991636E-015
   41.3606250000000        -4.141576861327946E-015
   41.5743750000000        -4.320489893174899E-015
   41.7881250000000        -4.503474348364767E-015
   42.0018750000000        -4.690579647954353E-015
   42.2156250000000        -4.881856684933097E-015
   42.4293750000000        -5.077363018881379E-015
   42.6431250000000        -5.277167059519291E-015
   42.8568750000000        -5.481350400816173E-015
   43.0706250000000        -5.690007826782248E-015
   43.2843750000000        -5.903244829130846E-015
   43.4981250000000        -6.121173007227221E-015
   43.7118750000000        -6.343904110358197E-015
   43.9256250000000        -6.571543835809600E-015
   44.1393750000000        -6.804186601914407E-015
   44.3531250000000        -7.041912529177897E-015
   44.5668750000000        -7.284787475150359E-015
   44.7806250000000        -7.532866570413289E-015
   44.9943750000000        -7.786201044279334E-015
   45.2081250000000        -8.044847491667703E-015
   45.4218750000000        -8.308878165034117E-015
   45.6356250000000        -8.578390461817323E-015
   45.8493750000000        -8.853513658789681E-015
   46.0631250000000        -9.134411096785397E-015
   46.2768750000000        -9.421276534793026E-015
   46.4906250000000        -9.714324144744758E-015
   46.7043750000000        -1.001377258529821E-014
   46.9181250000000        -1.031982464081502E-014
   47.1318750000000        -1.063264480196047E-014
   47.3456250000000        -1.095233792528220E-014
   47.5593750000000        -1.127893242993263E-014
   47.7731250000000        -1.161237135089895E-014
   47.9868750000000        -1.195251400750121E-014
   48.2006250000000        -1.229914984819787E-014
   48.4143750000000        -1.265202462235351E-014
   48.6281250000000        -1.301087721334615E-014
   48.8418750000000        -1.337548372116580E-014
   49.0556250000000        -1.374570377492442E-014
   49.2693750000000        -1.412152289491455E-014
   49.4831250000000        -1.450308426768448E-014
   49.6968750000000        -1.489070357784289E-014
   49.9106250000000        -1.528486188065173E-014
   50.1243750000000        -1.568617352779522E-014
   50.3381250000000        -1.609532921242414E-014
   50.5518750000000        -1.651301751739126E-014
   50.7656250000000        -1.693983195053563E-014
   50.9793750000000        -1.737617371477873E-014
   51.1931250000000        -1.782216284018108E-014
   51.4068750000000        -1.827757153370726E-014
   51.6206250000000        -1.874179308162331E-014
   51.8343750000000        -1.921385723787778E-014
   52.0481250000000        -1.969249876712769E-014
   52.2618750000000        -2.017627976817971E-014
   52.4756250000000        -2.066375921837591E-014
   52.6893750000000        -2.115369557504466E-014
   52.9031250000000        -2.164526112445738E-014
   53.1168750000000        -2.213824123395712E-014
   53.3306250000000        -2.263318877453717E-014
   53.5443750000000        -2.313150452155136E-014
   53.7581250000000        -2.363541901990857E-014
   53.9718750000000        -2.414786017103096E-014
   54.1856250000000        -2.467220334685546E-014
   54.3993750000000        -2.521191608600707E-014
   54.6131250000000        -2.577012573723988E-014
   54.8268750000000        -2.634915387119258E-014
   55.0406250000000        -2.695007354272152E-014
   55.2543750000000        -2.757235242613049E-014
   55.4681250000000        -2.821364450149473E-014
   55.6818750000000        -2.886978417950978E-014
   55.8956250000000        -2.953501925879381E-014
   56.1093750000000        -3.020249371460545E-014
   56.3231250000000        -3.086496015151331E-014
   56.5368750000000        -3.151566792766343E-014
   56.7506250000000        -3.214934066408955E-014
   56.9643750000000        -3.276313037899948E-014
   57.1781250000000        -3.335741974773716E-014
   57.3918750000000        -3.393634220313348E-014
   57.6056250000000        -3.450790494311766E-014
   57.8193750000000        -3.508363254675608E-014
   58.0331250000000        -3.567769767698592E-014
   58.2468750000000        -3.630556634176488E-014
   58.4606250000000        -3.698225234479995E-014
   58.6743750000000        -3.772034116264297E-014
   58.8881250000000        -3.852799882096943E-014
   59.1018750000000        -3.940721763434838E-014
   59.3156250000000        -4.035256035518156E-014
   59.5293750000000        -4.135064205316361E-014
   59.7431250000000        -4.238053289847658E-014
   59.9568750000000        -4.341517696587946E-014
   60.1706250000000        -4.442380872261739E-014
   60.3843750000000        -4.537522043331028E-014
   60.5981250000000        -4.624160443641872E-014
   60.8118750000000        -4.700258010537600E-014
   61.0256250000000        -4.764893290721785E-014
   61.2393750000000        -4.818555722792637E-014
   61.4531250000000        -4.863311653910069E-014
   61.6668750000000        -4.902801992486389E-014
   61.8806250000000        -4.942046109762539E-014
   62.0943750000000        -4.987046586770635E-014
   62.3081250000000        -5.044212920807525E-014
   62.5218750000000        -5.119647001346889E-014
   62.7356250000000        -5.218356193840080E-014
   62.9493750000000        -5.343478208980134E-014
   63.1631250000000        -5.495612727912822E-014
   63.3768750000000        -5.672355668904806E-014
   63.5906250000000        -5.868121560268122E-014
   63.8043750000000        -6.074317450837036E-014
   64.0181250000000        -6.279899178593335E-014
   64.2318750000000        -6.472300094439639E-014
   64.4456250000000        -6.638677200109342E-014
   64.6593750000000        -6.767374840791784E-014
   64.8731250000000        -6.849466838759531E-014
   65.0868750000000        -6.880209568228807E-014
   65.3006250000000        -6.860225634242040E-014
   65.5143750000000        -6.796243996054735E-014
   65.7281250000000        -6.701249277494317E-014
   65.9418750000000        -6.593940204776761E-014
   66.1556250000000        -6.497461763931615E-014
   66.3693750000000        -6.437452693183745E-014
   66.5831250000000        -6.439532170781283E-014
   66.7968750000000        -6.526428504113911E-014
   67.0106250000000        -6.715019111894795E-014
   67.2243750000000        -7.013596259216538E-014
   67.4381250000000        -7.419689371981928E-014
   67.6518750000000        -7.918757119568638E-014
   67.8656250000000        -8.484008706789651E-014
   68.0793750000000        -9.077525576576896E-014
   68.2931250000000        -9.652737390187408E-014
   68.5068750000000        -1.015816892498091E-013
   68.7206250000000        -1.054222957408582E-013
   68.9343750000000        -1.075867881390663E-013
   69.1481250000000        -1.077228443960559E-013
   69.3618750000000        -1.056411003234603E-013
   69.5756250000000        -1.013583622262789E-013
   69.7893750000000        -9.512545424278452E-014
   70.0031250000000        -8.743485476474429E-014
   70.2168750000000        -7.900472011405770E-014
   70.4306250000000        -7.073784325175269E-014
   70.6443750000000        -6.365641255230589E-014
   70.8581250000000        -5.881593341068170E-014
   71.0718750000000        -5.720413078591294E-014
   71.2856250000000        -5.963282344286043E-014
   71.4993750000000        -6.663241383673708E-014
   71.7131250000000        -7.835956029480692E-014
   71.9268750000000        -9.452862684383345E-014
   72.1406250000000        -1.143765434617909E-013
   72.3543750000000        -1.366687387866039E-013
   72.5681250000000        -1.597509012013593E-013
   72.7818750000000        -1.816476453812358E-013
   72.9956250000000        -2.002049577159359E-013
   73.2093750000000        -2.132688836752148E-013
   73.4231250000000        -2.188886720420486E-013
   73.6368750000000        -2.155288977318873E-013
   73.8506250000000        -2.022723330406341E-013
   74.0643750000000        -1.789938738514433E-013
   74.2781250000000        -1.464859279042163E-013
   74.4918750000000        -1.065175101744623E-013
   74.7056250000000        -6.181291182966529E-014
   74.9193750000000        -1.594111530955317E-014
   75.1331250000000         2.688613404231633E-014
   75.3468750000000         6.210192263153842E-014
   75.5606250000000         8.514349630314845E-014
   75.7743750000000         9.186128897464667E-014
   75.9881250000000         7.894839241722340E-014
   76.2018750000000         4.435558154250869E-014
   76.4156250000000        -1.234632803889592E-014
   76.6293750000000        -8.969548277319471E-014
   76.8431250000000        -1.841952393009717E-013
   77.0568750000000        -2.903272786094909E-013
   77.2706250000000        -4.007415796598562E-013
   77.4843750000000        -5.066306540064710E-013
   77.6981250000000        -5.982805915893832E-013
   77.9118750000000        -6.657753503823259E-013
   78.1256250000000        -6.998145689705539E-013
   78.3393750000000        -6.925903810880284E-013
   78.5531250000000        -6.386567099507239E-013
   78.7668750000000        -5.357166993465751E-013
   78.9806250000000        -3.852514823210633E-013
   79.1943750000000        -1.929172569349611E-013
   79.4081250000000         3.135194951011046E-014
   79.6218750000000         2.735815018391483E-013
   79.8356250000000         5.163562530484444E-013
   80.0493750000000         7.397790541033033E-013
   80.2631250000000         9.227531126231118E-013
   80.4768750000000         1.044523019984299E-012
   80.6906250000000         1.086380660273518E-012
   80.9043750000000         1.033418224481542E-012
   81.1181250000000         8.761936519769185E-013
   81.3318750000000         6.121661199914496E-013
   81.5456250000000         2.467622352166362E-013
   81.7593750000000        -2.060518743110433E-013
   81.9731250000000        -7.237914272868040E-013
   82.1868750000000        -1.276129402332107E-012
   82.4006250000000        -1.826246472471429E-012
   82.6143750000000        -2.332822331385085E-012
   82.8281250000000        -2.752584179337294E-012
   83.0418750000000        -3.043277955556589E-012
   83.2556250000000        -3.166883691661756E-012
   83.4693750000000        -3.092861972228018E-012
   83.6831250000000        -2.801197270062647E-012
   83.8968750000000        -2.284998417650143E-012
   84.1106250000000        -1.552428181900092E-012
   84.3243750000000        -6.277631146716987E-013
   84.5381250000000         4.485694461626256E-013
   84.7518750000000         1.621070425550537E-012
   84.9656250000000         2.821386593722134E-012
   85.1793750000000         3.971612037894087E-012
   85.3931250000000         4.988540387587752E-012
   85.6068750000000         5.788660182965676E-012
   85.8206250000000         6.293620659343877E-012
   86.0343750000000         6.435844396525548E-012
   86.2481250000000         6.163930922374665E-012
   86.4618750000000         5.447484574785146E-012
   86.6756250000000         4.281012520307588E-012
   86.8893750000000         2.686575145907838E-012
   87.1031250000000         7.149299012714389E-013
   87.3168750000000        -1.555011606001174E-012
   87.5306250000000        -4.018498923819264E-012
   87.7443750000000        -6.549011009507842E-012
   87.9581250000000        -9.003948330658242E-012
   88.1718750000000        -1.123171223344526E-011
   88.3856250000000        -1.307983643722572E-011
   88.5993750000000        -1.440375240674261E-011
   88.8131250000000        -1.507570856650645E-011
   89.0268750000000        -1.499332767730749E-011
   89.2406250000000        -1.408728062755251E-011
   89.4543750000000        -1.232758018030007E-011
   89.6681250000000        -9.728054791186565E-012
   89.8818750000000        -6.348648470452509E-012
   90.0956250000000        -2.295303891671065E-012
   90.3093750000000         2.282683126866507E-012
   90.5231250000000         7.197806208033397E-012
   90.7368750000000         1.223180888046644E-011
   90.9506250000000         1.714514089579148E-011
   91.1643750000000         2.168795944377886E-011
   91.3781250000000         2.561211796349054E-011
   91.5918750000000         2.868350912921574E-011
   91.8056250000000         3.069408876701407E-011
   92.0193750000000         3.147290794782849E-011
   92.2331250000000         3.089552290088130E-011
   92.4468750000000         2.889123564511315E-011
   92.6606250000000         2.544773858652105E-011
   92.8743750000000         2.061288742282027E-011
   93.0881250000000         1.449349988544263E-011
   93.3018750000000         7.251262650843869E-012
   93.5156250000000        -9.039865377862402E-013
   93.7293750000000        -9.723162093232898E-012
   93.9431250000000        -1.892843154238630E-011
   94.1568750000000        -2.822461354169357E-011
   94.3706250000000        -3.731070330792418E-011
   94.5843750000000        -4.589073744854387E-011
   94.7981250000000        -5.368324580974149E-011
   95.0118750000000        -6.042862758085403E-011
   95.2256250000000        -6.589392887985145E-011
   95.4393750000000        -6.987468223502078E-011
   95.6531250000000        -7.219368436320164E-011
   95.8668750000000        -7.269682428161060E-011
   96.0806250000000        -7.124631391429539E-011
   96.2943750000000        -6.771190166206966E-011
   96.5081250000000        -6.196084945302656E-011
   96.7218750000000        -5.384761006091157E-011
   96.9356250000000        -4.320424044336731E-011
   97.1493750000000        -2.983261797588732E-011
   97.3631250000000        -1.349948306601133E-011
   97.5768750000000         6.064788412832405E-012
   97.7906250000000         2.916297330929785E-011
   98.0043750000000         5.612290025911092E-011
   98.2181250000000         8.728432283850780E-011
   98.4318750000000         1.229809789676828E-010
   98.6456250000000         1.635184130140420E-010
   98.8593750000000         2.091484936426318E-010
   99.0731250000000         2.600418853326194E-010
   99.2868750000000         3.162600010954151E-010
   99.5006250000000         3.777281568446520E-010
   99.7143750000000         4.442117462423075E-010
   99.9281250000000         5.152972458249560E-010
   100.141875000000         5.903797370510897E-010
   100.355625000000         6.686583947390954E-010
   100.569375000000         7.491410475655392E-010
   100.783125000000         8.306584803953920E-010
   100.996875000000         9.118886413356165E-010
   101.210625000000         9.913903652258922E-010
   101.424375000000         1.067645660642850E-009
   101.638125000000         1.139109062649378E-009
   101.851875000000         1.204262062183889E-009
   102.065625000000         1.261670217279464E-009
   102.279375000000         1.310040259738135E-009
   102.493125000000         1.348274356482420E-009
   102.706875000000         1.375518683495226E-009
   102.920625000000         1.391203629645983E-009
   103.134375000000         1.395073266279528E-009
   103.348125000000         1.387202185308352E-009
   103.561875000000         1.367998403631664E-009
   103.775625000000         1.338191726543690E-009
   103.989375000000         1.298807721795115E-009
   104.203125000000         1.251128238125892E-009
   104.416875000000         1.196640163064288E-009
   104.630625000000         1.136974809316593E-009
   104.844375000000         1.073840903512795E-009
   105.058125000000         1.008954586036471E-009
   105.271875000000         9.439700835675298E-010
   105.485625000000         8.804147633605320E-010
   105.699375000000         8.196321078374180E-010
   105.913125000000         7.627357600386803E-010
   106.126875000000         7.105771984971489E-010
   106.340625000000         6.637288312855363E-010
   106.554375000000         6.224833931462525E-010
   106.768125000000         5.868695375840406E-010
   106.981875000000         5.566824969602858E-010
   107.195625000000         5.315277025748176E-010
   107.409375000000         5.108743793552793E-010
   107.623125000000         4.941154189330022E-010
   107.836875000000         4.806293458322837E-010
   108.050625000000         4.698399675821341E-010
   108.264375000000         4.612693683601376E-010
   108.478125000000         4.545802761195470E-010
   108.691875000000         4.496044932438857E-010
   108.905625000000         4.463549977546237E-010
   109.119375000000         4.450204431105771E-010
   109.333125000000         4.459420394927128E-010
   109.546875000000         4.495741047889571E-010
   109.760625000000         4.564308381320715E-010
   109.974375000000         4.670230002114215E-010
   110.188125000000         4.817890954564568E-010
   110.401875000000         5.010262664855889E-010
   110.615625000000         5.248263741463602E-010
   110.829375000000         5.530226136269110E-010
   111.043125000000         5.851515019371843E-010
   111.256875000000         6.204341864043275E-010
   111.470625000000         6.577798174176129E-010
   111.684375000000         6.958122763361048E-010
   111.898125000000         7.329199464538499E-010
   112.111875000000         7.673265703388704E-010
   112.325625000000         7.971796660884249E-010
   112.539375000000         8.206515913140942E-010
   112.753125000000         8.360472497356401E-010
   112.966875000000         8.419117156537326E-010
   113.180625000000         8.371307661242353E-010
   113.394375000000         8.210174897999175E-010
   113.608125000000         7.933787835877899E-010
   113.821875000000         7.545566197304586E-010
   114.035625000000         7.054404028167340E-010
   114.249375000000         6.474484489594256E-010
   114.463125000000         5.824784987612672E-010
   114.676875000000         5.128291005008103E-010
   114.890625000000         4.410955453007512E-010
   115.104375000000         3.700456818256693E-010
   115.318125000000         3.024822771567311E-010
   115.531875000000         2.410995357715039E-010
   115.745625000000         1.883418784677644E-010
   115.959375000000         1.462730853916608E-010
   116.173125000000         1.164634208754617E-010
   116.386875000000         9.990141201079565E-011
   116.600625000000         9.693560548785220E-011
   116.814375000000         1.072499600412239E-010
   117.028125000000         1.298746452375170E-010
   117.241875000000         1.632320237034809E-010
   117.455625000000         2.052156105331305E-010
   117.669375000000         2.532979456130667E-010
   117.883125000000         3.046616880651746E-010
   118.096875000000         3.563469380490191E-010
   118.310625000000         4.054068810459622E-010
   118.524375000000         4.490633812753760E-010
   118.738125000000         4.848541463309180E-010
   118.951875000000         5.107635405770407E-010
   119.165625000000         5.253300111196797E-010
   119.379375000000         5.277243549696948E-010
   119.593125000000         5.177946273232693E-010
   119.806875000000         4.960752812111851E-010
   120.020625000000         4.637600401517963E-010
   120.234375000000         4.226399347786247E-010
   120.448125000000         3.750097789387217E-010
   120.661875000000         3.235480233641515E-010
   120.875625000000         2.711763191745662E-010
   121.089375000000         2.209061775187582E-010
   121.303125000000         1.756807723204984E-010
   121.516875000000         1.382201679792646E-010
   121.730625000000         1.108780529924551E-010
   121.944375000000         9.551743655460338E-011
   122.158125000000         9.341175295229724E-011
   122.371875000000         1.051764727953003E-010
   122.585625000000         1.307347127805869E-010
   122.799375000000         1.693185521736185E-010
   123.013125000000         2.195058988552603E-010
   123.226875000000         2.792908989594166E-010
   123.440625000000         3.461841489508162E-010
   123.654375000000         4.173374382428136E-010
   123.868125000000         4.896865037109250E-010