  -1.60312500000000        -1.631025101532963E-019
  -1.38937500000000         3.823497338578835E-017
  -1.17562500000000         2.755294126693935E-016
 -0.961875000000000         1.348123892262677E-015
 -0.748125000000000         5.308194885214229E-015
 -0.534375000000000         1.757759254797404E-014
 -0.320625000000000         4.996633686244606E-014
 -0.106875000000000         1.238580092625908E-013
  0.106875000000000         2.719115927596584E-013
  0.320625000000000         5.369158076942268E-013
  0.534375000000000         9.682354789774801E-013
  0.748125000000000         1.616959713531064E-012
  0.961875000000000         2.530112403215091E-012
   1.17562500000000         3.744186147371806E-012
   1.38937500000000         5.275505758464553E-012
   1.60312500000000         7.109707323513372E-012
   1.81687500000000         9.191932125933473E-012
   2.03062500000000         1.141780918718888E-011
   2.24437500000000         1.363166694584982E-011
   2.45812500000000         1.562879316722748E-011
   2.67187500000000         1.716803241939241E-011
   2.88562500000000         1.798989417240800E-011
   3.09937500000000         1.784126689473249E-011
   3.31312500000000         1.650543697690295E-011
   3.52687500000000         1.382677902018285E-011
   3.74062500000000         9.737252161639748E-012
   3.95437500000000         4.266829822913217E-012
   4.16812500000000        -2.450204536488842E-012
   4.38187500000000        -1.019319059606858E-011
   4.59562500000000        -1.867398153312074E-011
   4.80937500000000        -2.757762917825090E-011
   5.02312500000000        -3.659966012686431E-011
   5.23687500000000        -4.548444462610439E-011
   5.45062500000000        -5.405146427781043E-011
   5.66437500000000        -6.220978350445006E-011
   5.87812500000000        -6.995013682224989E-011
   6.09187500000000        -7.731975956143004E-011
   6.30562500000000        -8.438124120066865E-011
   6.51937500000000        -9.116141991493239E-011
   6.73312500000000        -9.760374060621218E-011
   6.94687500000000        -1.035321591848246E-010
   7.16062500000000        -1.086353781782465E-010
   7.37437500000000        -1.124800730581253E-010
   7.58812500000000        -1.145525321489648E-010
   7.80187500000000        -1.143231618620557E-010
   8.01562500000000        -1.113299115535598E-010
   8.22937500000000        -1.052621305478399E-010
   8.44312500000000        -9.602664092228468E-011
   8.65687500000000        -8.379364374209187E-011
   8.87062500000000        -6.899804303298356E-011
   9.08437500000000        -5.230382577942269E-011
   9.29812500000000        -3.452665199569786E-011
   9.51187500000000        -1.652890792101637E-011
   9.72562500000000         8.901594742102158E-013
   9.93937500000000         1.710484084569691E-011
   10.1531250000000         3.174210576967306E-011
   10.3668750000000         4.471574404894693E-011
   10.5806250000000         5.621853775445272E-011
   10.7943750000000         6.666146108343451E-011
   11.0081250000000         7.658017126727102E-011
   11.2218750000000         8.651837408773519E-011
   11.4356250000000         9.691685669213258E-011
   11.6493750000000         1.080263975536256E-010
   11.8631250000000         1.198576342384067E-010
   12.0768750000000         1.321887762541858E-010
   12.2906250000000         1.446171056055292E-010
   12.5043750000000         1.566499603488892E-010
   12.7181250000000         1.678259000563590E-010
   12.9318750000000         1.778239453460464E-010
   13.1456250000000         1.865534789426416E-010
   13.3593750000000         1.942014177000557E-010
   13.5731250000000         2.012211865952504E-010
   13.7868750000000         2.082762139499197E-010
   14.0006250000000         2.161259507367056E-010
   14.2143750000000         2.255004582356670E-010
   14.4281250000000         2.369676191953366E-010
   14.6418750000000         2.508204094343429E-010
   14.8556250000000         2.670108968467818E-010
   15.0693750000000         2.851419577097475E-010
   15.2831250000000         3.045086993252562E-010
   15.4968750000000         3.241934341799964E-010
   15.7106250000000         3.431900134832003E-010
   15.9243750000000         3.605385895805336E-010
   16.1381250000000         3.754426719334560E-010
   16.3518750000000         3.873644147899422E-010
   16.5656250000000         3.960596972172923E-010
   16.7793750000000         4.015787948144962E-010
   16.9931250000000         4.042200462028410E-010
   17.2068750000000         4.044504539978531E-010
   17.4206250000000         4.028215235607061E-010
   17.6343750000000         3.998852035703859E-010
   17.8481250000000         3.961271487870451E-010
   18.0618750000000         3.919349520329896E-010
   18.2756250000000         3.875871568790891E-010
   18.4893750000000         3.832716189828313E-010
   18.7031250000000         3.791206133643407E-010
   18.9168750000000         3.752421698584473E-010
   19.1306250000000         3.717558912284175E-010
   19.3443750000000         3.688059217544013E-010
   19.5581250000000         3.665621979684611E-010
   19.7718750000000         3.652138806923424E-010
   19.9856250000000         3.649432673987549E-010
   20.1993750000000         3.659146570391907E-010
   20.4131250000000         3.682589253214578E-010
   20.6268750000000         3.720747124800292E-010
   20.8406250000000         3.774395115367650E-010
   21.0543750000000         3.844252572308811E-010
   21.2681250000000         3.931112809882177E-010
   21.4818750000000         4.035957448891106E-010
   21.6956250000000         4.159838604218838E-010
   21.9093750000000         4.303635384501786E-010
   22.1231250000000         4.467643750520297E-010
   22.3368750000000         4.651123064749801E-010
   22.5506250000000         4.851874872690544E-010
   22.7643750000000         5.065987037718219E-010
   22.9781250000000         5.287879784696186E-010
   23.1918750000000         5.510685934609742E-010
   23.4056250000000         5.726955147127918E-010
   23.6193750000000         5.929589626683215E-010
   23.8331250000000         6.112918312132582E-010
   24.0468750000000         6.273634655787558E-010
   24.2606250000000         6.411487525979622E-010
   24.4743750000000         6.529529645030023E-010
   24.6881250000000         6.633861356186762E-010
   24.9018750000000         6.732870648651254E-010
   25.1156250000000         6.836118596468035E-010
   25.3293750000000         6.952990492968731E-010
   25.5431250000000         7.091394965291046E-010
   25.7568750000000         7.256732653348003E-010
   25.9706250000000         7.451318098964001E-010
   26.1843750000000         7.674340516917919E-010
   26.3981250000000         7.922348979946819E-010
   26.6118750000000         8.190233528365096E-010
   26.8256250000000         8.472398489574654E-010
   27.0393750000000         8.763911135735574E-010
   27.2531250000000         9.061458275505156E-010
   27.4668750000000         9.363849461056936E-010
   27.6806250000000         9.671950154964729E-010
   27.8943750000000         9.988092927749615E-010
   28.1081250000000         1.031513631689258E-009
   28.3218750000000         1.065522249425276E-009
   28.5356250000000         1.100863060894091E-009
   28.7493750000000         1.137290130499856E-009
   28.9631250000000         1.174249822844429E-009
   29.1768750000000         1.210901115353235E-009
   29.3906250000000         1.246199887816032E-009
   29.6043750000000         1.279026835084093E-009
   29.8181250000000         1.308350268183231E-009
   30.0318750000000         1.333378127598954E-009
   30.2456250000000         1.353695491476119E-009
   30.4593750000000         1.369343096130490E-009
   30.6731250000000         1.380836587979352E-009
   30.8868750000000         1.389116135581005E-009
   31.1006250000000         1.395434669137342E-009
   31.3143750000000         1.401204288846933E-009
   31.5281250000000         1.407818056229856E-009
   31.7418750000000         1.416480592324209E-009
   31.9556250000000         1.428066838064349E-009
   32.1693750000000         1.443031662479011E-009
   32.3831250000000         1.461378980807340E-009
   32.5968750000000         1.482690172093186E-009
   32.8106250000000         1.506210724748797E-009
   33.0243750000000         1.530974023682323E-009
   33.2381250000000         1.555941038415986E-009
   33.4518750000000         1.580143191913201E-009
   33.6656250000000         1.602800888104046E-009
   33.8793750000000         1.623408757772204E-009
   34.0931250000000         1.641771618342772E-009
   34.3068750000000         1.657998744517349E-009
   34.5206250000000         1.672456892764637E-009
   34.7343750000000         1.685688466741025E-009
   34.9481250000000         1.698317689481118E-009
   35.1618750000000         1.710952524051087E-009
   35.3756250000000         1.724102682865521E-009
   35.5893750000000         1.738122324928383E-009
   35.8031250000000         1.753182588645898E-009
   36.0168750000000         1.769284173785391E-009
   36.2306250000000         1.786296729603080E-009
   36.4443750000000         1.804026241201770E-009
   36.6581250000000         1.822286646733377E-009
   36.8718750000000         1.840975862908613E-009
   37.0856250000000         1.860132095512995E-009
   37.2993750000000         1.879967164501617E-009
   37.5131250000000         1.900859190394070E-009
   37.7268750000000         1.923318157677477E-009
   37.9406250000000         1.947917599683888E-009
   38.1543750000000         1.975205631222469E-009
   38.3681250000000         2.005613562732195E-009
   38.5818750000000         2.039369535488436E-009
   38.7956250000000         2.076440180647870E-009
   39.0093750000000         2.116507047408613E-009
   39.2231250000000         2.158981831449067E-009
   39.4368750000000         2.203064237366764E-009
   39.6506250000000         2.247830391706519E-009
   39.8643750000000         2.292337900516207E-009
   40.0781250000000         2.335733716830545E-009
   40.2918750000000         2.377346784410297E-009
   40.5056250000000         2.416751941528576E-009
   40.7193750000000         2.453795213419600E-009
   40.9331250000000         2.488582115236857E-009
   41.1468750000000         2.521438419837494E-009
   41.3606250000000         2.552841455656662E-009
   41.5743750000000         2.583358133580990E-009
   41.7881250000000         2.613589417903477E-009
   42.0018750000000         2.644130417412797E-009
   42.2156250000000         2.675557962521388E-009
   42.4293750000000         2.708446989448273E-009
   42.6431250000000         2.743379162880327E-009
   42.8568750000000         2.780958751781464E-009
   43.0706250000000         2.821791686934711E-009
   43.2843750000000         2.866432408890942E-009
   43.4981250000000         2.915283051342332E-009
   43.7118750000000         2.968454812548819E-009
   43.9256250000000         3.025612960261022E-009
   44.1393750000000         3.085835114093818E-009
   44.3531250000000         3.147520278439687E-009
   44.5668750000000         3.208394699485906E-009
   44.7806250000000         3.265632819249079E-009
   44.9943750000000         3.316121381107921E-009
   45.2081250000000         3.356847686306977E-009
   45.4218750000000         3.385382225520276E-009
   45.6356250000000         3.400394027292192E-009
   45.8493750000000         3.402113037576585E-009
   46.0631250000000         3.392657015034105E-009
   46.2768750000000         3.376131231643938E-009
   46.4906250000000         3.358434034400016E-009
   46.7043750000000         3.346746770586619E-009
   46.9181250000000         3.348711596551856E-009
   47.1318750000000         3.371377699994189E-009
   47.3456250000000         3.420030442144353E-009
   47.5593750000000         3.497062352304974E-009
   47.7731250000000         3.601080309191467E-009
   47.9868750000000         3.726407927133751E-009
   48.2006250000000         3.863157464033763E-009
   48.4143750000000         3.997937830546454E-009
   48.6281250000000         4.115212866341755E-009
   48.8418750000000         4.199218936784706E-009
   49.0556250000000         4.236240032142153E-009
   49.2693750000000         4.216976614930587E-009
   49.4831250000000         4.138652403162727E-009
   49.6968750000000         4.006520527428123E-009
   49.9106250000000         3.834450567339361E-009
   50.1243750000000         3.644350869039342E-009
   50.3381250000000         3.464345835646119E-009
   50.5518750000000         3.325767543720218E-009
   50.7656250000000         3.259223776381275E-009
   50.9793750000000         3.290165858057223E-009
   51.1931250000000         3.434528867220475E-009
   51.4068750000000         3.695076046124601E-009
   51.6206250000000         4.059070436677428E-009
   51.8343750000000         4.497812590141935E-009
   52.0481250000000         4.968355770274451E-009
   52.2618750000000         5.417476712506286E-009
   52.4756250000000         5.787633212635309E-009
   52.6893750000000         6.024346647575158E-009
   52.9031250000000         6.084148628063138E-009
   53.1168750000000         5.942036496033340E-009
   53.3306250000000         5.597330664054866E-009
   53.5443750000000         5.076887412247959E-009
   53.7581250000000         4.434882669543633E-009
   53.9718750000000         3.748753922593515E-009
   54.1856250000000         3.111403274125597E-009
   54.3993750000000         2.620288514366538E-009
   54.6131250000000         2.364557496710135E-009
   54.8268750000000         2.411805993273177E-009
   55.0406250000000         2.796270994149187E-009
   55.2543750000000         3.510298689182458E-009
   55.4681250000000         4.500663181230888E-009
   55.6818750000000         5.670822718786393E-009
   55.8956250000000         6.889474453396569E-009
   56.1093750000000         8.004918727564275E-009
   56.3231250000000         8.863862539618558E-009
   56.5368750000000         9.332499955631313E-009
   56.7506250000000         9.317133443827420E-009
   56.9643750000000         8.781376058986130E-009
   57.1781250000000         7.757099402919180E-009
   57.3918750000000         6.346891460977008E-009
   57.6056250000000         4.716747507435909E-009
   57.8193750000000         3.078973141869560E-009
   58.0331250000000         1.666678806371010E-009
   58.2468750000000         7.026306627942901E-010
   58.4606250000000         3.663112026966933E-010
   58.6743750000000         7.637773183780767E-010
   58.8881250000000         1.904983932253509E-009
   59.1018750000000         3.692701441880293E-009
   59.3156250000000         5.925943589880982E-009
   59.5293750000000         8.319030115810063E-009
   59.7431250000000         1.053526631367003E-008
   59.9568750000000         1.223195076391071E-008
   60.1706250000000         1.311137424316972E-008
   60.3843750000000         1.297095062056743E-008
   60.5981250000000         1.174490836313887E-008
   60.8118750000000         9.530285711646816E-009
   61.0256250000000         6.591384383582911E-009
   61.2393750000000         3.339268991581100E-009
   61.4531250000000         2.861661118260983E-010
   61.6668750000000        -2.021701742269349E-009
   61.8806250000000        -3.085637555074414E-009
   62.0943750000000        -2.540048449590948E-009
   62.3081250000000        -2.297557905344632E-010
   62.5218750000000         3.733767008840798E-009
   62.7356250000000         8.948761526023079E-009
   62.9493750000000         1.474054664906384E-008
   63.1631250000000         2.022345282343127E-008
   63.3768750000000         2.440495892929023E-008
   63.5906250000000         2.632311209827296E-008
   63.8043750000000         2.520216897671916E-008
   64.0181250000000         2.060642850691723E-008
   64.2318750000000         1.256941955185395E-008
   64.4456250000000         1.675548101955476E-009
   64.6593750000000        -1.092551106016438E-008
   64.8731250000000        -2.358500484597010E-008
   65.0868750000000        -3.430598657811149E-008
   65.3006250000000        -4.097183967142881E-008
   65.5143750000000        -4.163344050505251E-008
   65.7281250000000        -3.482482577895542E-008
   65.9418750000000        -1.986840211705558E-008
   66.1556250000000         2.874182532447657E-009
   66.3693750000000         3.184919562175420E-008
   66.5831250000000         6.429373673584690E-008
   66.7968750000000         9.638021880259866E-008
   67.0106250000000         1.235311351727642E-007
   67.2243750000000         1.408919644914612E-007
   67.4381250000000         1.439275081840831E-007
   67.6518750000000         1.290854234371680E-007
   67.8656250000000         9.445295477899838E-008
   68.0793750000000         4.032175689575094E-008
   68.2931250000000        -3.042647867140510E-008
   68.5068750000000        -1.121925583330894E-007
   68.7206250000000        -1.968501164492469E-007
   68.9343750000000        -2.742838561611498E-007
   69.1481250000000        -3.332681933973687E-007
   69.3618750000000        -3.626364847913443E-007
   69.5756250000000        -3.526483317220521E-007
   69.7893750000000        -2.964244942511765E-007
   70.0031250000000        -1.912907199928002E-007
   70.2168750000000        -3.985799724551782E-008
   70.4306250000000         1.493290525435038E-007
   70.6443750000000         3.617198009328399E-007
   70.8581250000000         5.773613877785303E-007
   71.0718750000000         7.722171872204559E-007
   71.2856250000000         9.201639460366423E-007
   71.4993750000000         9.955506341973160E-007
   71.7131250000000         9.761228836295295E-007
   71.9268750000000         8.460483608877682E-007
   72.1406250000000         5.987294221739325E-007
   72.3543750000000         2.390676886852200E-007
   72.5681250000000        -2.151435672103459E-007
   72.7818750000000        -7.329760437735838E-007
   72.9956250000000        -1.271466291827586E-006
   73.2093750000000        -1.778139474167994E-006
   73.4231250000000        -2.194901104710996E-006
   73.6368750000000        -2.463092755385750E-006
   73.8506250000000        -2.529361885425140E-006
   74.0643750000000        -2.351867448486583E-006
   74.2781250000000        -1.906246752494112E-006
   74.4918750000000        -1.190718460283673E-006
   74.7056250000000        -2.297018465077101E-007
   74.9193750000000         9.246009065080282E-007
   75.1331250000000         2.193084162801403E-006
   75.3468750000000         3.473320483847214E-006
   75.5606250000000         4.645856273145801E-006
   75.7743750000000         5.582977560650119E-006
   75.9881250000000         6.159440617137020E-006
   76.2018750000000         6.264418993584201E-006
   76.4156250000000         5.813718218403780E-006
   76.6293750000000         4.761174712037417E-006
   76.8431250000000         3.108105305791291E-006
   77.0568750000000         9.097209715667046E-007
   77.2706250000000        -1.722431876803491E-006
   77.4843750000000        -4.622690464531526E-006
   77.6981250000000        -7.578508270823973E-006
   77.9118750000000        -1.034265485836955E-005
   78.1256250000000        -1.264990150071129E-005
   78.3393750000000        -1.423727496034283E-005
   78.5531250000000        -1.486656178513667E-005
   78.7668750000000        -1.434741910963277E-005
   78.9806250000000        -1.255922910695834E-005
   79.1943750000000        -9.469750517614543E-006
   79.4081250000000        -5.148690429849536E-006
   79.6218750000000         2.254503354485254E-007
   79.8356250000000         6.366519942616071E-006
   80.0493750000000         1.289058714788313E-005
   80.2631250000000         1.933465680576989E-005
   80.4768750000000         2.518365538697823E-005
   80.6906250000000         2.990441028275814E-005
   80.9043750000000         3.298468509224097E-005
   81.1181250000000         3.397476680314985E-005
   81.3318750000000         3.252868074384353E-005
   81.5456250000000         2.844187822677886E-005
   81.7593750000000         2.168223121163845E-005
   81.9731250000000         1.241139453747345E-005
   82.1868750000000         9.940591319503187E-007
   82.4006250000000        -1.200669895539611E-005
   82.6143750000000        -2.584890390725681E-005
   82.8281250000000        -3.964593260601878E-005
   83.0418750000000        -5.241440014447390E-005
   83.2556250000000        -6.313348067309128E-005
   83.4693750000000        -7.081248116925571E-005
   83.6831250000000        -7.456265513647133E-005
   83.8968750000000        -7.366863460442656E-005
   84.1106250000000        -6.765452875684576E-005
   84.3243750000000        -5.633972607668364E-005
   84.5381250000000        -3.987976447356982E-005
   84.7518750000000        -1.878829865311891E-005
   84.9656250000000         6.062828647884309E-006
   85.1793750000000         3.346716208349195E-005
   85.3931250000000         6.193116524530720E-005
   85.6068750000000         8.974446229042209E-005
   85.8206250000000         1.150699694953977E-004
   86.0343750000000         1.360496054516583E-004
   86.2481250000000         1.509199623600025E-004
   86.4618750000000         1.581312942028660E-004
   86.6756250000000         1.564625125689127E-004
   86.8893750000000         1.451246407074172E-004
   87.1031250000000         1.238454008806914E-004
   87.3168750000000         9.292831177445254E-005
   87.5306250000000         5.328083562303324E-005
   87.7443750000000         6.407692645559346E-006
   87.9581250000000        -4.563262020990356E-005
   88.1718750000000        -1.003079079212884E-004
   88.3856250000000        -1.547264714051361E-004
   88.5993750000000        -2.057806635617371E-004
   88.8131250000000        -2.503129369565361E-004
   89.0268750000000        -2.852956917735665E-004
   89.2406250000000        -3.080148404389859E-004
   89.4543750000000        -3.162461570080704E-004
   89.6681250000000        -3.084132645624721E-004
   89.8818750000000        -2.837165885855622E-004
   90.0956250000000        -2.422237856665179E-004
   90.3093750000000        -1.849140181017731E-004
   90.5231250000000        -1.136709137207548E-004
   90.7368750000000        -3.122200912805528E-005
   90.9506250000000         5.897423553553175E-005
   91.1643750000000         1.528893349465873E-004
   91.3781250000000         2.461257291156910E-004
   91.5918750000000         3.341468927435743E-004
   91.8056250000000         4.125232201184201E-004
   92.0193750000000         4.771785655381679E-004
   92.2331250000000         5.246215109509097E-004
   92.4468750000000         5.521456766031683E-004
   92.6606250000000         5.579847452421344E-004
   92.8743750000000         5.414103183091377E-004
   93.0881250000000         5.027641641086806E-004
   93.3018750000000         4.434206719447528E-004
   93.5156250000000         3.656801362366076E-004
   93.7293750000000         2.725985418013683E-004
   93.9431250000000         1.677644443418106E-004
   94.1568750000000         5.503795918033636E-005
   94.3706250000000        -6.172958284826160E-005
   94.5843750000000        -1.789744089563288E-004
   94.7981250000000        -2.936757194206797E-004
   95.0118750000000        -4.035666933013681E-004
   95.2256250000000        -5.072824387743981E-004
   95.4393750000000        -6.044302311258572E-004
   95.6531250000000        -6.955727413787353E-004
   95.8668750000000        -7.821213532507481E-004
   96.0806250000000        -8.661436570925257E-004
   96.2943750000000        -9.500962845037906E-004
   96.5081250000000        -1.036500858081213E-003
   96.7218750000000        -1.127586435202681E-003
   96.9356250000000        -1.224925931275455E-003
   97.1493750000000        -1.329096217893271E-003
   97.3631250000000        -1.439391635635799E-003
   97.5768750000000        -1.553618427935927E-003
   97.7906250000000        -1.667993152231397E-003
   98.0043750000000        -1.777161693204910E-003
   98.2181250000000        -1.874347488495721E-003
   98.4318750000000        -1.951628514628987E-003
   98.6456250000000        -2.000333103780349E-003
   98.8593750000000        -2.011535456021069E-003
   99.0731250000000        -1.976623462978602E-003
   99.2868750000000        -1.887904800743100E-003
   99.5006250000000        -1.739212713900976E-003
   99.7143750000000        -1.526470886570691E-003
   99.9281250000000        -1.248177493466886E-003
   100.141875000000        -9.057719655166362E-004
   100.355625000000        -5.038540169936894E-004
   100.569375000000        -5.023270829095401E-005
   100.783125000000         4.442067524969694E-004
   100.996875000000         9.658197682475546E-004
   101.210625000000         1.498692611923490E-003
   101.424375000000         2.025285139606572E-003
   101.638125000000         2.527195004304447E-003
   101.851875000000         2.986004227383877E-003
   102.065625000000         3.384163034685867E-003
   102.279375000000         3.705862534942486E-003
   102.493125000000         3.937847324050008E-003
   102.706875000000         4.070121481380111E-003
   102.920625000000         4.096506552710149E-003
   103.134375000000         4.015017698147381E-003
   103.348125000000         3.828033793606800E-003
   103.561875000000         3.542248371509033E-003
   103.775625000000         3.168400252631211E-003
   103.989375000000         2.720794895456663E-003
   104.203125000000         2.216639202682302E-003
   104.416875000000         1.675223133153506E-003
   104.630625000000         1.116990384845760E-003
   104.844375000000         5.625471385047088E-004
   105.058125000000         3.166198823731171E-005
   105.271875000000        -4.576885323250061E-004
   105.485625000000        -8.901761178263332E-004
   105.699375000000        -1.253830497786695E-003
   105.913125000000        -1.540562262797461E-003
   106.126875000000        -1.746467981117791E-003
   106.340625000000        -1.871898752525535E-003
   106.554375000000        -1.921286614637369E-003
   106.768125000000        -1.902737181136977E-003
   106.981875000000        -1.827410781933265E-003
   107.195625000000        -1.708727386364152E-003
   107.409375000000        -1.561441922435560E-003
   107.623125000000        -1.400645510300756E-003
   107.836875000000        -1.240753960397324E-003
   108.050625000000        -1.094547147392396E-003
   108.264375000000        -9.723212529389085E-004
   108.478125000000        -8.812102913581759E-004
   108.691875000000        -8.247239593990544E-004
   108.905625000000        -8.025361074923702E-004
   109.119375000000        -8.105426861976515E-004
   109.333125000000        -8.411907680887991E-004
   109.546875000000        -8.840622460194889E-004
   109.760625000000        -9.266782377859070E-004
   109.974375000000        -9.554742933663341E-004
   110.188125000000        -9.568833626144062E-004
   110.401875000000        -9.184541592383044E-004
   110.615625000000        -8.299278523769633E-004
   110.829375000000        -6.841964395648812E-004
   111.043125000000        -4.780718703968472E-004
   111.256875000000        -2.128057909055618E-004
   111.470625000000         1.056849178892883E-004
   111.684375000000         4.669127576248199E-004
   111.898125000000         8.562391088163565E-004
   112.111875000000         1.255601178731041E-003
   112.325625000000         1.644507442056384E-003
   112.539375000000         2.001243234885506E-003
   112.753125000000         2.304212346161315E-003
   112.966875000000         2.533329381268296E-003
   113.180625000000         2.671372208885213E-003
   113.394375000000         2.705204410476067E-003
   113.608125000000         2.626784365756827E-003
   113.821875000000         2.433890023729797E-003
   114.035625000000         2.130505715695014E-003
   114.249375000000         1.726838405312180E-003
   114.463125000000         1.238954122846009E-003
   114.676875000000         6.880494251420339E-004
   114.890625000000         9.939595233485843E-005
   115.104375000000        -4.989830101859728E-004
   115.318125000000        -1.077827949831692E-003
   115.531875000000        -1.608262198180013E-003
   115.745625000000        -2.063419532592561E-003
   115.959375000000        -2.419984247918209E-003
   116.173125000000        -2.659552518796305E-003
   116.386875000000        -2.769734166408423E-003
   116.600625000000        -2.744928925332700E-003
   116.814375000000        -2.586729997233783E-003
   117.028125000000        -2.303928919627084E-003
   117.241875000000        -1.912118311359815E-003
   117.455625000000        -1.432911602741583E-003
   117.669375000000        -8.928201889138838E-004
   117.883125000000        -3.218474433898714E-004
   118.096875000000         2.481252627846999E-004
   118.310625000000         7.850737356308238E-004
   118.524375000000         1.258593472058633E-003
   118.738125000000         1.641593526509787E-003
   118.951875000000         1.911828625034075E-003
   119.165625000000         2.053184179653395E-003
   119.379375000000         2.056641137204027E-003
   119.593125000000         1.920863841210834E-003
   119.806875000000         1.652373543217713E-003
   120.020625000000         1.265291954688623E-003
   120.234375000000         7.806622269989725E-004
   120.448125000000         2.253778294393858E-004
   120.661875000000        -3.692282467297010E-004
   120.875625000000        -9.690619045056325E-004
   121.089375000000        -1.539125774018570E-003
   121.303125000000        -2.045456592973337E-003
   121.516875000000        -2.457035890868222E-003
   121.730625000000        -2.747567188551545E-003
   121.944375000000        -2.897018430043921E-003
   122.158125000000        -2.892839784216402E-003
   122.371875000000        -2.730783787314026E-003
   122.585625000000        -2.415276186161642E-003
   122.799375000000        -1.959310613699793E-003
   123.013125000000        -1.383866962262344E-003
   123.226875000000        -7.168804333156416E-004
   123.440625000000         8.185903993960977E-006
   123.654375000000         7.540892042857642E-004
   123.868125000000         1.481781002563388E-003