  -1.60312500000000        -5.000904843061881E-018
  -1.38937500000000        -4.997675758069428E-018
  -1.17562500000000        -3.893943544024006E-018
 -0.961875000000000         6.359022788925750E-018
 -0.748125000000000         6.639140095399836E-017
 -0.534375000000000         3.404749467154116E-016
 -0.320625000000000         1.386796209924885E-015
 -0.106875000000000         4.837944108872898E-015
  0.106875000000000         1.487235722302862E-014
  0.320625000000000         4.097845132334100E-014
  0.534375000000000         1.025326424314475E-013
  0.748125000000000         2.355469612821307E-013
  0.961875000000000         5.015938927955107E-013
   1.17562500000000         9.984298489849465E-013
   1.38937500000000         1.871326485525777E-012
   1.60312500000000         3.323611095678025E-012
   1.81687500000000         5.624852156429294E-012
   2.03062500000000         9.115000988500465E-012
   2.24437500000000         1.420300132695254E-011
   2.45812500000000         2.135925220748495E-011
   2.67187500000000         3.110150953113462E-011
   2.88562500000000         4.397491159362008E-011
   3.09937500000000         6.052763927883863E-011
   3.31312500000000         8.128421388016667E-011
   3.52687500000000         1.067189083260951E-010
   3.74062500000000         1.372319534800501E-010
   3.95437500000000         1.731313043356149E-010
   4.16812500000000         2.146211533423942E-010
   4.38187500000000         2.617984386741820E-010
   4.59562500000000         3.146577686817806E-010
   4.80937500000000         3.731030524233068E-010
   5.02312500000000         4.369644242366094E-010
   5.23687500000000         5.060176512464149E-010
   5.45062500000000         5.800038807861023E-010
   5.66437500000000         6.586469883102487E-010
   5.87812500000000         7.416670191961993E-010
   6.09187500000000         8.287899699362839E-010
   6.30562500000000         9.197531090753532E-010
   6.51937500000000         1.014308433648364E-009
   6.73312500000000         1.112226038496885E-009
   6.94687500000000         1.213300121101695E-009
   7.16062500000000         1.317358401758959E-009
   7.37437500000000         1.424277313450513E-009
   7.58812500000000         1.534002108246199E-009
   7.80187500000000         1.646570165848329E-009
   8.01562500000000         1.762134228844585E-009
   8.22937500000000         1.880982465938456E-009
   8.44312500000000         2.003550827541884E-009
   8.65687500000000         2.130424099117575E-009
   8.87062500000000         2.262323905929166E-009
   9.08437500000000         2.400082718572277E-009
   9.29812500000000         2.544605660112782E-009
   9.51187500000000         2.696823321585398E-009
   9.72562500000000         2.857640958731009E-009
   9.93937500000000         3.027888879660566E-009
   10.1531250000000         3.208280548006054E-009
   10.3668750000000         3.399382125166966E-009
   10.5806250000000         3.601596543297691E-009
   10.7943750000000         3.815162820254371E-009
   11.0081250000000         4.040168610149917E-009
   11.2218750000000         4.276573094521246E-009
   11.4356250000000         4.524234994956199E-009
   11.6493750000000         4.782941264973440E-009
   11.8631250000000         5.052432145057683E-009
   12.0768750000000         5.332419807802712E-009
   12.2906250000000         5.622599566884655E-009
   12.5043750000000         5.922655428953155E-009
   12.7181250000000         6.232262355416103E-009
   12.9318750000000         6.551089612129415E-009
   13.1456250000000         6.878809248121603E-009
   13.3593750000000         7.215112438826127E-009
   13.5731250000000         7.559734868831113E-009
   13.7868750000000         7.912490574769010E-009
   14.0006250000000         8.273310219567567E-009
   14.2143750000000         8.642279112052344E-009
   14.4281250000000         9.019668155184038E-009
   14.6418750000000         9.405951710389540E-009
   14.8556250000000         9.801807827722310E-009
   15.0693750000000         1.020809797153952E-008
   15.2831250000000         1.062582685874234E-008
   15.4968750000000         1.105608593581115E-008
   15.7106250000000         1.149998687451387E-008
   15.9243750000000         1.195859289803267E-008
   16.1381250000000         1.243285651032348E-008
   16.3518750000000         1.292357117533101E-008
   16.5656250000000         1.343134294648884E-008
   16.7793750000000         1.395658410195806E-008
   16.9931250000000         1.449952842560496E-008
   17.2068750000000         1.506026384722657E-008
   17.4206250000000         1.563877577830840E-008
   17.6343750000000         1.623499398877452E-008
   17.8481250000000         1.684883429820277E-008
   18.0618750000000         1.748022918791346E-008
   18.2756250000000         1.812914321117192E-008
   18.4893750000000         1.879557169942915E-008
   18.7031250000000         1.947952599003939E-008
   18.9168750000000         2.018100868535367E-008
   19.1306250000000         2.089998676242824E-008
   19.3443750000000         2.163636821058517E-008
   19.5581250000000         2.238998983918800E-008
   19.7718750000000         2.316061920495851E-008
   19.9856250000000         2.394797303748593E-008
   20.1993750000000         2.475175074976907E-008
   20.4131250000000         2.557167888549301E-008
   20.6268750000000         2.640756057992092E-008
   20.8406250000000         2.725932316067693E-008
   21.0543750000000         2.812705720335039E-008
   21.2681250000000         2.901104103568446E-008
   21.4818750000000         2.991174795445580E-008
   21.6956250000000         3.082983480877363E-008
   21.9093750000000         3.176611406641726E-008
   22.1231250000000         3.272151333899805E-008
   22.3368750000000         3.369702823568286E-008
   22.5506250000000         3.469367463356596E-008
   22.7643750000000         3.571244627261747E-008
   22.9781250000000         3.675428255246911E-008
   23.1918750000000         3.782004914893751E-008
   23.4056250000000         3.891053199132644E-008
   23.6193750000000         4.002644338672258E-008
   23.8331250000000         4.116843672602861E-008
   24.0468750000000         4.233712549588073E-008
   24.2606250000000         4.353310203479908E-008
   24.4743750000000         4.475695204041953E-008
   24.6881250000000         4.600926149066218E-008
   24.9018750000000         4.729061506164566E-008
   25.1156250000000         4.860158601354693E-008
   25.3293750000000         4.994272052671585E-008
   25.5431250000000         5.131451901652450E-008
   25.7568750000000         5.271741959868122E-008
   25.9706250000000         5.415178681949688E-008
   26.1843750000000         5.561790999212697E-008
   26.3981250000000         5.711601250045609E-008
   26.6118750000000         5.864627348477675E-008
   26.8256250000000         6.020885958945773E-008
   27.0393750000000         6.180396408431354E-008
   27.2531250000000         6.343184917681223E-008
   27.4668750000000         6.509288589372055E-008
   27.6806250000000         6.678758652892435E-008
   27.8943750000000         6.851662527127913E-008
   28.1081250000000         7.028084366195586E-008
   28.3218750000000         7.208123997373993E-008
   28.5356250000000         7.391894355176258E-008
   28.7493750000000         7.579517631612751E-008
   28.9631250000000         7.771120624542103E-008
   29.1768750000000         7.966829832394711E-008
   29.3906250000000         8.166766793712366E-008
   29.6043750000000         8.371044191048388E-008
   29.8181250000000         8.579763077285616E-008
   30.0318750000000         8.793011378326793E-008
   30.2456250000000         9.010863670413368E-008
   30.4593750000000         9.233382038254568E-008
   30.6731250000000         9.460617646836979E-008
   30.8868750000000         9.692612636787968E-008
   31.1006250000000         9.929401908441938E-008
   31.3143750000000         1.017101444782414E-007
   31.5281250000000         1.041747398892206E-007
   31.7418750000000         1.066879895882122E-007
   31.9556250000000         1.092500185483853E-007
   32.1693750000000         1.118608829857583E-007
   32.3831250000000         1.145205618750330E-007
   32.5968750000000         1.172289531283428E-007
   32.8106250000000         1.199858784113871E-007
   33.0243750000000         1.227910984491455E-007
   33.2381250000000         1.256443396827707E-007
   33.4518750000000         1.285453309694473E-007
   33.6656250000000         1.314938469744638E-007
   33.8793750000000         1.344897536436588E-007
   34.0931250000000         1.375330504124318E-007
   34.3068750000000         1.406239035195636E-007
   34.5206250000000         1.437626662515049E-007
   34.7343750000000         1.469498830658194E-007
   34.9481250000000         1.501862768346439E-007
   35.1618750000000         1.534727208485965E-007
   35.3756250000000         1.568101989958111E-007
   35.5893750000000         1.601997593890742E-007
   35.8031250000000         1.636424677382392E-007
   36.0168750000000         1.671393662933319E-007
   36.2306250000000         1.706914437156145E-007
   36.4443750000000         1.742996197139281E-007
   36.6581250000000         1.779647454648074E-007
   36.8718750000000         1.816876191450492E-007
   37.0856250000000         1.854690135412778E-007
   37.2993750000000         1.893097102577067E-007
   37.5131250000000         1.932105348565622E-007
   37.7268750000000         1.971723862258786E-007
   37.9406250000000         2.011962555078790E-007
   38.1543750000000         2.052832297233493E-007
   38.3681250000000         2.094344791008902E-007
   38.5818750000000         2.136512284931020E-007
   38.7956250000000         2.179347171116302E-007
   39.0093750000000         2.222861505996954E-007
   39.2231250000000         2.267066533316209E-007
   39.4368750000000         2.311972275568330E-007
   39.6506250000000         2.357587248376670E-007
   39.8643750000000         2.403918352263687E-007
   40.0781250000000         2.450970958167365E-007
   40.2918750000000         2.498749184086111E-007
   40.5056250000000         2.547256330800512E-007
   40.7193750000000         2.596495425058930E-007
   40.9331250000000         2.646469804913546E-007
   41.1468750000000         2.697183675844837E-007
   41.3606250000000         2.748642579198730E-007
   41.5743750000000         2.800853718597940E-007
   41.7881250000000         2.853826122418625E-007
   42.0018750000000         2.907570638438501E-007
   42.2156250000000         2.962099774919554E-007
   42.4293750000000         3.017427427919750E-007
   42.6431250000000         3.073568531145276E-007
   42.8568750000000         3.130538677828810E-007
   43.0706250000000         3.188353741684055E-007
   43.2843750000000         3.247029524197823E-007
   43.4981250000000         3.306581430974921E-007
   43.7118750000000         3.367024178036322E-007
   43.9256250000000         3.428371520424000E-007
   44.1393750000000         3.490635990549295E-007
   44.3531250000000         3.553828666875392E-007
   44.5668750000000         3.617958980990452E-007
   44.7806250000000         3.683034612439355E-007
   44.9943750000000         3.749061516675710E-007
   45.2081250000000         3.816044135941344E-007
   45.4218750000000         3.883985827555535E-007
   45.6356250000000         3.952889517049151E-007
   45.8493750000000         4.022758532304255E-007
   46.0631250000000         4.093597530593588E-007
   46.2768750000000         4.165413373387781E-007
   46.4906250000000         4.238215774345977E-007
   46.7043750000000         4.312017530351189E-007
   46.9181250000000         4.386834165137547E-007
   47.1318750000000         4.462682876135042E-007
   47.3456250000000         4.539580776824731E-007
   47.5593750000000         4.617542541951497E-007
   47.7731250000000         4.696577709003297E-007
   47.9868750000000         4.776688003949244E-007
   48.2006250000000         4.857865169370713E-007
   48.4143750000000         4.940089792269594E-007
   48.6281250000000         5.023331604095348E-007
   48.8418750000000         5.107551592537358E-007
   49.0556250000000         5.192706060593205E-007
   49.2693750000000         5.278752493748459E-007
   49.4831250000000         5.365656780812237E-007
   49.6968750000000         5.453401031843478E-007
   49.9106250000000         5.541990967616079E-007
   50.1243750000000         5.631461712125388E-007
   50.3381250000000         5.721880800482529E-007
   50.5518750000000         5.813347377326899E-007
   50.7656250000000         5.905986893965413E-007
   50.9793750000000         5.999941132235176E-007
   51.1931250000000         6.095353996878643E-007
   51.4068750000000         6.192354214288882E-007
   51.6206250000000         6.291036712494708E-007
   51.8343750000000         6.391444984999853E-007
   52.0481250000000         6.493557033802382E-007
   52.2618750000000         6.597277471472795E-007
   52.4756250000000         6.702437992179272E-007
   52.6893750000000         6.808807680811017E-007
   52.9031250000000         6.916113551651204E-007
   53.1168750000000         7.024070399164381E-007
   53.3306250000000         7.132417634116675E-007
   53.5443750000000         7.240959411168601E-007
   53.7581250000000         7.349603300479996E-007
   53.9718750000000         7.458392115527197E-007
   54.1856250000000         7.567523505110608E-007
   54.3993750000000         7.677352639931632E-007
   54.6131250000000         7.788374764919738E-007
   54.8268750000000         7.901186513315438E-007
   55.0406250000000         8.016427499375868E-007
   55.2543750000000         8.134706542265892E-007
   55.4681250000000         8.256519612285566E-007
   55.6818750000000         8.382168803937256E-007
   55.8956250000000         8.511693028994689E-007
   56.1093750000000         8.644821292035454E-007
   56.3231250000000         8.780958198939349E-007
   56.5368750000000         8.919208683955706E-007
   56.7506250000000         9.058444974328078E-007
   56.9643750000000         9.197413796314024E-007
   57.1781250000000         9.334876358047186E-007
   57.3918750000000         9.469768271838524E-007
   57.6056250000000         9.601362089441194E-007
   57.8193750000000         9.729412175543974E-007
   58.0331250000000         9.854260892391176E-007
   58.2468750000000         9.976886890040549E-007
   58.4606250000000         1.009888083660731E-006
   58.6743750000000         1.022234101622355E-006
   58.8881250000000         1.034969025749283E-006
   59.1018750000000         1.048342581355740E-006
   59.3156250000000         1.062582388986993E-006
   59.5293750000000         1.077862927039706E-006
   59.7431250000000         1.094276659048790E-006
   59.9568750000000         1.111811213007621E-006
   60.1706250000000         1.130336276652742E-006
   60.3843750000000         1.149603157837513E-006
   60.5981250000000         1.169258784400222E-006
   60.8118750000000         1.188874362165793E-006
   61.0256250000000         1.207987129590535E-006
   61.2393750000000         1.226151826678611E-006
   61.4531250000000         1.242996863264305E-006
   61.6668750000000         1.258278946233000E-006
   61.8806250000000         1.271929321378894E-006
   62.0943750000000         1.284084935754926E-006
   62.3081250000000         1.295098823613212E-006
   62.5218750000000         1.305525829749271E-006
   62.7356250000000         1.316082289312418E-006
   62.9493750000000         1.327581261250098E-006
   63.1631250000000         1.340848055147085E-006
   63.3768750000000         1.356623739487415E-006
   63.5906250000000         1.375466692016209E-006
   63.8043750000000         1.397663702258158E-006
   64.0181250000000         1.423162380873099E-006
   64.2318750000000         1.451535500222058E-006
   64.4456250000000         1.481985374083368E-006
   64.6593750000000         1.513392608432174E-006
   64.8731250000000         1.544408839342132E-006
   65.0868750000000         1.573587853832548E-006
   65.3006250000000         1.599544325633711E-006
   65.5143750000000         1.621124897620057E-006
   65.7281250000000         1.637573097824415E-006
   65.9418750000000         1.648668099024488E-006
   66.1556250000000         1.654817988769376E-006
   66.3693750000000         1.657091165581688E-006
   66.5831250000000         1.657174631946877E-006
   66.7968750000000         1.657254980083805E-006
   67.0106250000000         1.659826174059024E-006
   67.2243750000000         1.667437035283844E-006
   67.4381250000000         1.682399717931416E-006
   67.6518750000000         1.706487442339389E-006
   67.8656250000000         1.740654419331674E-006
   68.0793750000000         1.784812485869289E-006
   68.2931250000000         1.837696967147557E-006
   68.5068750000000         1.896848496281426E-006
   68.7206250000000         1.958728167302772E-006
   68.9343750000000         2.018971044423842E-006
   69.1481250000000         2.072768677260573E-006
   69.3618750000000         2.115356142729834E-006
   69.5756250000000         2.142564728956896E-006
   69.7893750000000         2.151389268984520E-006
   70.0031250000000         2.140510812016646E-006
   70.2168750000000         2.110712077907536E-006
   70.4306250000000         2.065125902460725E-006
   70.6443750000000         2.009266068800388E-006
   70.8581250000000         1.950805411597802E-006
   71.0718750000000         1.899087102056205E-006
   71.2856250000000         1.864380206183905E-006
   71.4993750000000         1.856918033429098E-006
   71.7131250000000         1.885785104259075E-006
   71.9268750000000         1.957743149253553E-006
   72.1406250000000         2.076105734633984E-006
   72.3543750000000         2.239782395012753E-006
   72.5681250000000         2.442614460077389E-006
   72.7818750000000         2.673114653731921E-006
   72.9956250000000         2.914700433417414E-006
   73.2093750000000         3.146477332344267E-006
   73.4231250000000         3.344584757645765E-006
   73.6368750000000         3.484065364300275E-006
   73.8506250000000         3.541163844165012E-006
   74.0643750000000         3.495906155514439E-006
   74.2781250000000         3.334760829993809E-006
   74.4918750000000         3.053145199843629E-006
   74.7056250000000         2.657516167471725E-006
   74.9193750000000         2.166781805443056E-006
   75.1331250000000         1.612789842596395E-006
   75.3468750000000         1.039693641909948E-006
   75.5606250000000         5.020653976165874E-007
   75.7743750000000         6.171761853976129E-008
   75.9881250000000        -2.166970845403330E-007
   76.2018750000000        -2.711181189585862E-007
   76.4156250000000        -4.822927799830765E-008
   76.6293750000000         4.900940773607800E-007
   76.8431250000000         1.360563126683245E-006
   77.0568750000000         2.553063630211883E-006
   77.2706250000000         4.026662848909727E-006
   77.4843750000000         5.707620188915316E-006
   77.6981250000000         7.489908606728906E-006
   77.9118750000000         9.238620758244563E-006
   78.1256250000000         1.079644849034606E-005
   78.3393750000000         1.199319428113226E-005
   78.5531250000000         1.265801125429428E-005
   78.7668750000000         1.263379154736820E-005
   78.9806250000000         1.179285195595043E-005
   79.1943750000000         1.005282425183828E-005
   79.4081250000000         7.391469645340541E-006
   79.6218750000000         3.859025791807935E-006
   79.8356250000000        -4.133192390330349E-007
   80.0493750000000        -5.210133420605490E-006
   80.2631250000000        -1.023471664467746E-005
   80.4768750000000        -1.511909702329509E-005
   80.6906250000000        -1.944135143734495E-005
   80.9043750000000        -2.275001828969428E-005
   81.1181250000000        -2.459477625089020E-005
   81.3318750000000        -2.456194929855355E-005
   81.5456250000000        -2.231281113664829E-005
   81.7593750000000        -1.762215054089164E-005
   81.9731250000000        -1.041417305464603E-005
   82.1868750000000        -7.926000492331862E-007
   82.4006250000000         1.093817778891583E-005
   82.6143750000000         2.426380160847007E-005
   82.8281250000000         3.846492498812566E-005
   83.0418750000000         5.263816908832913E-005
   83.2556250000000         6.573379633448517E-005
   83.4693750000000         7.660971742170463E-005
   83.6831250000000         8.410020087126496E-005
   83.8968750000000         8.709636975376785E-005
   84.1106250000000         8.463433549209597E-005
   84.3243750000000         7.598572915397881E-005
   84.5381250000000         6.074454165795491E-005
   84.7518750000000         3.890366433111366E-005
   84.9656250000000         1.091440477582695E-005
   85.1793750000000        -2.227740608735823E-005
   85.3931250000000        -5.922427436970200E-005
   85.6068750000000        -9.800312313554792E-005
   85.8206250000000        -1.362770946219000E-004
   86.0343750000000        -1.713934572859607E-004
   86.2481250000000        -2.005156144863588E-004
   86.4618750000000        -2.207846943107294E-004
   86.6756250000000        -2.295037074397015E-004
   86.8893750000000        -2.243349619071300E-004
   87.1031250000000        -2.034994935252626E-004
   87.3168750000000        -1.659658739085679E-004
   87.5306250000000        -1.116150399109771E-004
   87.7443750000000        -4.136786289401920E-005
   87.9581250000000         4.273688428866399E-005
   88.1718750000000         1.375246786103557E-004
   88.3856250000000         2.387353542701141E-004
   88.5993750000000         3.411455668442699E-004
   88.8131250000000         4.387639698566715E-004
   89.0268750000000         5.250950100208382E-004
   89.2406250000000         5.934626406426207E-004
   89.4543750000000         6.373807663909452E-004
   89.6681250000000         6.509531597628679E-004
   89.8818750000000         6.292822200195786E-004
   90.0956250000000         5.688635468105764E-004
   90.3093750000000         4.679420993381738E-004
   90.5231250000000         3.268058745237876E-004
   90.7368750000000         1.479946563189255E-004
   90.9506250000000        -6.359553087138748E-005
   91.1643750000000        -3.007271750504074E-004
   91.3781250000000        -5.539644930551455E-004
   91.5918750000000        -8.119477849121549E-004
   91.8056250000000        -1.061794429861552E-003
   92.0193750000000        -1.289614669217929E-003
   92.2331250000000        -1.481123209324616E-003
   92.4468750000000        -1.622321255598085E-003
   92.6606250000000        -1.700218278851429E-003
   92.8743750000000        -1.703558991542032E-003
   93.0881250000000        -1.623518972232862E-003
   93.3018750000000        -1.454332320299207E-003
   93.5156250000000        -1.193816732182054E-003
   93.7293750000000        -8.437654209981139E-004
   93.9431250000000        -4.101811799752269E-004
   94.1568750000000         9.666467814792415E-005
   94.3706250000000         6.623571908019813E-004
   94.5843750000000         1.268645860814319E-003
   94.7981250000000         1.893926078452319E-003
   95.0118750000000         2.513874968307015E-003
   95.2256250000000         3.102214809110918E-003
   95.4393750000000         3.631570665679999E-003
   95.6531250000000         4.074384224856614E-003
   95.8668750000000         4.403843326759583E-003
   96.0806250000000         4.594786477847104E-003
   96.2943750000000         4.624543724546957E-003
   96.5081250000000         4.473679507473845E-003
   96.7218750000000         4.126609218174458E-003
   96.9356250000000         3.572068732897414E-003
   97.1493750000000         2.803424697009912E-003
   97.3631250000000         1.818822215502529E-003
   97.5768750000000         6.211752846565861E-004
   97.7906250000000        -7.819867880395673E-004
   98.0043750000000        -2.378797090926621E-003
   98.2181250000000        -4.153428106552994E-003
   98.4318750000000        -6.086540191589002E-003
   98.6456250000000        -8.155772877463153E-003
   98.8593750000000        -1.033625159632647E-002
   99.0731250000000        -1.260108565930873E-002
   99.2868750000000        -1.492183819241731E-002
   99.5006250000000        -1.726895484891053E-002
   99.7143750000000        -1.961214495439854E-002
   99.9281250000000        -2.192071573730333E-002
   100.141875000000        -2.416386687402813E-002
   100.355625000000        -2.631095818457372E-002
   100.569375000000        -2.833176746745353E-002
   100.783125000000        -3.019675778299929E-002
   100.996875000000        -3.187737373399309E-002
   101.210625000000        -3.334638435672947E-002
   101.424375000000        -3.457828619108500E-002
   101.638125000000        -3.554977417339682E-002
   101.851875000000        -3.624028056928316E-002
   102.065625000000        -3.663257374130603E-002
   102.279375000000        -3.671339973218602E-002
   102.493125000000        -3.647414110101507E-002
   102.706875000000        -3.591145985702106E-002
   102.920625000000        -3.502788534378435E-002
   103.134375000000        -3.383230411409004E-002
   103.348125000000        -3.234030766482245E-002
   103.561875000000        -3.057435568511909E-002
   103.775625000000        -2.856371734405939E-002
   103.989375000000        -2.634416104552883E-002
   104.203125000000        -2.395737374481417E-002
   104.416875000000        -2.145010389530628E-002
   104.630625000000        -1.887303673816054E-002
   104.844375000000        -1.627942617900107E-002
   105.058125000000        -1.372352302270750E-002
   105.271875000000        -1.125885391085580E-002
   105.485625000000        -8.936417974440246E-003
   105.699375000000        -6.802878080342497E-003
   105.913125000000        -4.898829830340456E-003
   106.126875000000        -3.257233550817694E-003
   106.340625000000        -1.902091989318144E-003
   106.554375000000        -8.474491621570750E-004
   106.768125000000        -9.677390219051005E-005
   106.981875000000         3.572244524191830E-004
   107.195625000000         5.323204247511974E-004
   107.409375000000         4.560312512302116E-004
   107.623125000000         1.644283434926889E-004
   107.836875000000        -2.994566448721811E-004
   108.050625000000        -8.875664626314700E-004
   108.264375000000        -1.549008780773095E-003
   108.478125000000        -2.232401407863820E-003
   108.691875000000        -2.888259584261001E-003
   108.905625000000        -3.471307067640191E-003
   109.119375000000        -3.942593367652392E-003
   109.333125000000        -4.271306645523582E-003
   109.546875000000        -4.436185280492870E-003
   109.760625000000        -4.426450349971746E-003
   109.974375000000        -4.242205341149585E-003
   110.188125000000        -3.894277056290640E-003
   110.401875000000        -3.403501387781167E-003
   110.615625000000        -2.799487750857805E-003
   110.829375000000        -2.118924732696861E-003
   111.043125000000        -1.403515245349437E-003
   111.256875000000        -6.976506011859432E-004
   111.470625000000        -4.594815282088710E-005
   111.684375000000         5.092145231363907E-004
   111.898125000000         9.300350463242342E-004
   112.111875000000         1.185364132822798E-003
   112.325625000000         1.252412859647864E-003
   112.539375000000         1.117996702979546E-003
   112.753125000000         7.792496379180596E-004
   112.966875000000         2.437713250201890E-004
   113.180625000000        -4.707977285913389E-004
   113.394375000000        -1.337746025304689E-003
   113.608125000000        -2.322748448457363E-003
   113.821875000000        -3.385726566270497E-003
   114.035625000000        -4.483005193310007E-003
   114.249375000000        -5.569642702033683E-003
   114.463125000000        -6.601803892664129E-003
   114.676875000000        -7.539043148123621E-003
   114.890625000000        -8.346372119034782E-003
   115.104375000000        -8.995999846183683E-003
   115.318125000000        -9.468653159407186E-003
   115.531875000000        -9.754410157108819E-003
   115.745625000000        -9.853008053478912E-003
   115.959375000000        -9.773616980035151E-003
   116.173125000000        -9.534101663380871E-003
   116.386875000000        -9.159821518543981E-003
   116.600625000000        -8.682044973975704E-003
   116.814375000000        -8.136074380654076E-003
   117.028125000000        -7.559192554629690E-003
   117.241875000000        -6.988550118398671E-003
   117.455625000000        -6.459113992938040E-003
   117.669375000000        -6.001791703993718E-003
   117.883125000000        -5.641834049482437E-003
   118.096875000000        -5.397600932758140E-003
   118.310625000000        -5.279752905540386E-003
   118.524375000000        -5.290905525411622E-003
   118.738125000000        -5.425756511163816E-003
   118.951875000000        -5.671668437882115E-003
   119.165625000000        -6.009663895231945E-003
   119.379375000000        -6.415767074732213E-003
   119.593125000000        -6.862606910367827E-003
   119.806875000000        -7.321183179197044E-003
   120.020625000000        -7.762689082662489E-003
   120.234375000000        -8.160282149100757E-003
   120.448125000000        -8.490699847032129E-003
   120.661875000000        -8.735626752728671E-003
   120.875625000000        -8.882735822668892E-003
   121.089375000000        -8.926346341039351E-003
   121.303125000000        -8.867664267883895E-003
   121.516875000000        -8.714595658293118E-003
   121.730625000000        -8.481149115574911E-003
   121.944375000000        -8.186467425249906E-003
   122.158125000000        -7.853550202103194E-003
   122.371875000000        -7.507747324225520E-003
   122.585625000000        -7.175116096176758E-003
   122.799375000000        -6.880742722902827E-003
   123.013125000000        -6.647130350549661E-003
   123.226875000000        -6.492751549113701E-003
   123.440625000000        -6.430852936877745E-003
   123.654375000000        -6.468584279207499E-003
   123.868125000000        -6.606504742261216E-003