  -1.60312500000000         1.175900508550567E-023
  -1.38937500000000        -7.260312987482400E-017
  -1.17562500000000        -5.199966477011896E-016
 -0.961875000000000        -2.537162673984392E-015
 -0.748125000000000        -9.966054559823719E-015
 -0.534375000000000        -3.291458696366648E-014
 -0.320625000000000        -9.326696908085129E-014
 -0.106875000000000        -2.302688522992938E-013
  0.106875000000000        -5.029923862462836E-013
  0.320625000000000        -9.870077999723163E-013
  0.534375000000000        -1.766308983565069E-012
  0.748125000000000        -2.922645216544480E-012
  0.961875000000000        -4.523518605903790E-012
   1.17562500000000        -6.609270829245191E-012
   1.38937500000000        -9.175391090461350E-012
   1.60312500000000        -1.215375123840653E-011
   1.81687500000000        -1.539752080909596E-011
   2.03062500000000        -1.866721074062644E-011
   2.24437500000000        -2.163380870153111E-011
   2.45812500000000        -2.388723599083629E-011
   2.67187500000000        -2.496746516971738E-011
   2.88562500000000        -2.439994040212324E-011
   3.09937500000000        -2.174906229472063E-011
   3.31312500000000        -1.666908656671696E-011
   3.52687500000000        -8.951160064483226E-012
   3.74062500000000         1.434451139562093E-012
   3.95437500000000         1.432778127677584E-011
   4.16812500000000         2.937664402490621E-011
   4.38187500000000         4.608071437646088E-011
   4.59562500000000         6.383323849681637E-011
   4.80937500000000         8.200423803175639E-011
   5.02312500000000         1.000108839542405E-010
   5.23687500000000         1.173865365090114E-010
   5.45062500000000         1.338242247042126E-010
   5.66437500000000         1.491922834140732E-010
   5.87812500000000         1.635141739102229E-010
   6.09187500000000         1.769072669068752E-010
   6.30562500000000         1.895039353120922E-010
   6.51937500000000         2.013549001507255E-010
   6.73312500000000         2.123406122758096E-010
   6.94687500000000         2.221173408462757E-010
   7.16062500000000         2.300951086565840E-010
   7.37437500000000         2.354815475449133E-010
   7.58812500000000         2.373671241489680E-010
   7.80187500000000         2.348575405078037E-010
   8.01562500000000         2.272273454407067E-010
   8.22937500000000         2.140732591898649E-010
   8.44312500000000         1.954198748164909E-010
   8.65687500000000         1.717861104431714E-010
   8.87062500000000         1.441618522033046E-010
   9.08437500000000         1.139142618202861E-010
   9.29812500000000         8.262427839627993E-011
   9.51187500000000         5.187695591521979E-011
   9.72562500000000         2.305404859513092E-011
   9.93937500000000        -2.858883601187769E-012
   10.1531250000000        -2.539766613563377E-011
   10.3668750000000        -4.465111950883962E-011
   10.5806250000000        -6.120619237952628E-011
   10.7943750000000        -7.599661447012287E-011
   11.0081250000000        -9.009920317547560E-011
   11.2218750000000        -1.044958281840887E-010
   11.4356250000000        -1.198663146534613E-010
   11.6493750000000        -1.364410323712468E-010
   11.8631250000000        -1.539471738976990E-010
   12.0768750000000        -1.716662143411146E-010
   12.2906250000000        -1.885918280175953E-010
   12.5043750000000        -2.036529707110662E-010
   12.7181250000000        -2.159863916764640E-010
   12.9318750000000        -2.251682590684727E-010
   13.1456250000000        -2.313856970108226E-010
   13.3593750000000        -2.355003592253100E-010
   13.5731250000000        -2.389800808059040E-010
   13.7868750000000        -2.437194749961577E-010
   14.0006250000000        -2.517483773405980E-010
   14.2143750000000        -2.649121488184324E-010
   14.4281250000000        -2.845540372318127E-010
   14.6418750000000        -3.112572921967884E-010
   14.8556250000000        -3.447074849302905E-010
   15.0693750000000        -3.836963833814216E-010
   15.2831250000000        -4.262560011007368E-010
   15.4968750000000        -4.699201465186428E-010
   15.7106250000000        -5.120533899467448E-010
   15.9243750000000        -5.502066371360309E-010
   16.1381250000000        -5.824185356036780E-010
   16.3518750000000        -6.074495081295745E-010
   16.5656250000000        -6.248649222108073E-010
   16.7793750000000        -6.350093024304674E-010
   16.9931250000000        -6.388552605480395E-010
   17.2068750000000        -6.377590861219506E-010
   17.4206250000000        -6.331942838910951E-010
   17.6343750000000        -6.264925479862140E-010
   17.8481250000000        -6.186425934839816E-010
   18.0618750000000        -6.101905605391138E-010
   18.2756250000000        -6.012325383771320E-010
   18.4893750000000        -5.915109546224931E-010
   18.7031250000000        -5.805825400833969E-010
   18.9168750000000        -5.680057108700785E-010
   19.1306250000000        -5.535392658423919E-010
   19.3443750000000        -5.372782086633223E-010
   19.5581250000000        -5.197234979229292E-010
   19.7718750000000        -5.017837285691028E-010
   19.9856250000000        -4.846723257632460E-010
   20.1993750000000        -4.697795100780336E-010
   20.4131250000000        -4.584886061760912E-010
   20.6268750000000        -4.520092246146443E-010
   20.8406250000000        -4.512341025366619E-010
   21.0543750000000        -4.566462749399406E-010
   21.2681250000000        -4.682779139277885E-010
   21.4818750000000        -4.857386173180780E-010
   21.6956250000000        -5.082778340130074E-010
   21.9093750000000        -5.348805189278568E-010
   22.1231250000000        -5.643744061646718E-010
   22.3368750000000        -5.955326310539612E-010
   22.5506250000000        -6.271643868456995E-010
   22.7643750000000        -6.581769958955755E-010
   22.9781250000000        -6.876283145331538E-010
   23.1918750000000        -7.147580848893205E-010
   23.4056250000000        -7.390057494998115E-010
   23.6193750000000        -7.600216712757357E-010
   23.8331250000000        -7.776788237123391E-010
   24.0468750000000        -7.920671003754706E-010
   24.2606250000000        -8.034873273957215E-010
   24.4743750000000        -8.124299291632944E-010
   24.6881250000000        -8.195370732049183E-010
   24.9018750000000        -8.255578664477958E-010
   25.1156250000000        -8.312924365894455E-010
   25.3293750000000        -8.375349295654154E-010
   25.5431250000000        -8.450254692065682E-010
   25.7568750000000        -8.544173018290851E-010
   25.9706250000000        -8.662651111652889E-010
   26.1843750000000        -8.810350389064671E-010
   26.3981250000000        -8.991191358935783E-010
   26.6118750000000        -9.208734276019769E-010
   26.8256250000000        -9.466362551505983E-010
   27.0393750000000        -9.767277298301108E-010
   27.2531250000000        -1.011430248397983E-009
   27.4668750000000        -1.050944153018464E-009
   27.6806250000000        -1.095311055339591E-009
   27.8943750000000        -1.144333403672834E-009
   28.1081250000000        -1.197512921553588E-009
   28.3218750000000        -1.254001742661415E-009
   28.5356250000000        -1.312602155541779E-009
   28.7493750000000        -1.371820440507101E-009
   28.9631250000000        -1.429976137305678E-009
   29.1768750000000        -1.485343707745975E-009
   29.3906250000000        -1.536327667500876E-009
   29.6043750000000        -1.581623576067266E-009
   29.8181250000000        -1.620365708140933E-009
   30.0318750000000        -1.652205482428045E-009
   30.2456250000000        -1.677340842226568E-009
   30.4593750000000        -1.696459406688466E-009
   30.6731250000000        -1.710632207587244E-009
   30.8868750000000        -1.721153573254291E-009
   31.1006250000000        -1.729371973868719E-009
   31.3143750000000        -1.736527215954183E-009
   31.5281250000000        -1.743618639479231E-009
   31.7418750000000        -1.751332549724586E-009
   31.9556250000000        -1.760024215480204E-009
   32.1693750000000        -1.769757218594635E-009
   32.3831250000000        -1.780387180209853E-009
   32.5968750000000        -1.791659893355989E-009
   32.8106250000000        -1.803316604600371E-009
   33.0243750000000        -1.815175168678999E-009
   33.2381250000000        -1.827169047881777E-009
   33.4518750000000        -1.839352128941011E-009
   33.6656250000000        -1.851861169452786E-009
   33.8793750000000        -1.864854759986869E-009
   34.0931250000000        -1.878435491881367E-009
   34.3068750000000        -1.892584909781928E-009
   34.5206250000000        -1.907127307015945E-009
   34.7343750000000        -1.921716520713591E-009
   34.9481250000000        -1.935872931318875E-009
   35.1618750000000        -1.949046122774311E-009
   35.3756250000000        -1.960709489902073E-009
   35.5893750000000        -1.970456365740044E-009
   35.8031250000000        -1.978087962985470E-009
   36.0168750000000        -1.983681863360112E-009
   36.2306250000000        -1.987620770130332E-009
   36.4443750000000        -1.990583409887908E-009
   36.6581250000000        -1.993486932583527E-009
   36.8718750000000        -1.997402671098476E-009
   37.0856250000000        -2.003442108771298E-009
   37.2993750000000        -2.012641946751274E-009
   37.5131250000000        -2.025836576322754E-009
   37.7268750000000        -2.043571084969014E-009
   37.9406250000000        -2.066032888802580E-009
   38.1543750000000        -2.093023288001813E-009
   38.3681250000000        -2.123982105847580E-009
   38.5818750000000        -2.158040169134288E-009
   38.7956250000000        -2.194122230307701E-009
   39.0093750000000        -2.231066003374503E-009
   39.2231250000000        -2.267755651590254E-009
   39.4368750000000        -2.303252874623163E-009
   39.6506250000000        -2.336903591585946E-009
   39.8643750000000        -2.368415682912945E-009
   40.0781250000000        -2.397880959527546E-009
   40.2918750000000        -2.425757374489187E-009
   40.5056250000000        -2.452795994770174E-009
   40.7193750000000        -2.479927981812780E-009
   40.9331250000000        -2.508128447610765E-009
   41.1468750000000        -2.538278857305075E-009
   41.3606250000000        -2.571036032490765E-009
   41.5743750000000        -2.606746894472130E-009
   41.7881250000000        -2.645414750439353E-009
   42.0018750000000        -2.686708593988077E-009
   42.2156250000000        -2.730029862969358E-009
   42.4293750000000        -2.774635195849656E-009
   42.6431250000000        -2.819749529866941E-009
   42.8568750000000        -2.864703996789456E-009
   43.0706250000000        -2.909024589035298E-009
   43.2843750000000        -2.952491163175066E-009
   43.4981250000000        -2.995135340530786E-009
   43.7118750000000        -3.037185401157156E-009
   43.9256250000000        -3.078967629890748E-009
   44.1393750000000        -3.120790974392468E-009
   44.3531250000000        -3.162823083698263E-009
   44.5668750000000        -3.205009756418339E-009
   44.7806250000000        -3.247026456549374E-009
   44.9943750000000        -3.288298708359979E-009
   45.2081250000000        -3.328075464819942E-009
   45.4218750000000        -3.365547917174352E-009
   45.6356250000000        -3.399995993516726E-009
   45.8493750000000        -3.430921465267076E-009
   46.0631250000000        -3.458158110509951E-009
   46.2768750000000        -3.481923505118210E-009
   46.4906250000000        -3.502800263062992E-009
   46.7043750000000        -3.521661699420059E-009
   46.9181250000000        -3.539529618095877E-009
   47.1318750000000        -3.557412575692034E-009
   47.3456250000000        -3.576140228607440E-009
   47.5593750000000        -3.596221358094049E-009
   47.7731250000000        -3.617775326693790E-009
   47.9868750000000        -3.640508659314340E-009
   48.2006250000000        -3.663793431135072E-009
   48.4143750000000        -3.686791696362271E-009
   48.6281250000000        -3.708626043195060E-009
   48.8418750000000        -3.728564891861835E-009
   49.0556250000000        -3.746177703896788E-009
   49.2693750000000        -3.761455405599041E-009
   49.4831250000000        -3.774841542367299E-009
   49.6968750000000        -3.787197479900409E-009
   49.9106250000000        -3.799690548086209E-009
   50.1243750000000        -3.813624797581259E-009
   50.3381250000000        -3.830247562830624E-009
   50.5518750000000        -3.850557108410099E-009
   50.7656250000000        -3.875150992183786E-009
   50.9793750000000        -3.904125936302089E-009
   51.1931250000000        -3.937063439364836E-009
   51.4068750000000        -3.973091240103660E-009
   51.6206250000000        -4.011003279378953E-009
   51.8343750000000        -4.049443647000434E-009
   52.0481250000000        -4.087093670116571E-009
   52.2618750000000        -4.122858978349614E-009
   52.4756250000000        -4.156008438535347E-009
   52.6893750000000        -4.186257498762867E-009
   52.9031250000000        -4.213782594779558E-009
   53.1168750000000        -4.239157475115558E-009
   53.3306250000000        -4.263240598023285E-009
   53.5443750000000        -4.287021330026536E-009
   53.7581250000000        -4.311459959969683E-009
   53.9718750000000        -4.337336797766152E-009
   54.1856250000000        -4.365155533285088E-009
   54.3993750000000        -4.395096134795069E-009
   54.6131250000000        -4.427029481534937E-009
   54.8268750000000        -4.460590957669517E-009
   55.0406250000000        -4.495292866264409E-009
   55.2543750000000        -4.530659051249857E-009
   55.4681250000000        -4.566344844340251E-009
   55.6818750000000        -4.602226138256053E-009
   55.8956250000000        -4.638434152797383E-009
   56.1093750000000        -4.675329861589033E-009
   56.3231250000000        -4.713421453555300E-009
   56.5368750000000        -4.753243025988960E-009
   56.7506250000000        -4.795196493198327E-009
   56.9643750000000        -4.839429297336962E-009
   57.1781250000000        -4.885725367832511E-009
   57.3918750000000        -4.933469884887707E-009
   57.6056250000000        -4.981682399025551E-009
   57.8193750000000        -5.029123520815466E-009
   58.0331250000000        -5.074452402261449E-009
   58.2468750000000        -5.116430190985000E-009
   58.4606250000000        -5.154102770320702E-009
   58.6743750000000        -5.186963101475953E-009
   58.8881250000000        -5.215044183500573E-009
   59.1018750000000        -5.238926863364308E-009
   59.3156250000000        -5.259667952378200E-009
   59.5293750000000        -5.278649165309443E-009
   59.7431250000000        -5.297379346891581E-009
   59.9568750000000        -5.317282887562656E-009
   60.1706250000000        -5.339506135080809E-009
   60.3843750000000        -5.364785981749929E-009
   60.5981250000000        -5.393386957459173E-009
   60.8118750000000        -5.425124327673313E-009
   61.0256250000000        -5.459468703576520E-009
   61.2393750000000        -5.495691426423986E-009
   61.4531250000000        -5.533042523906179E-009
   61.6668750000000        -5.570903036912351E-009
   61.8806250000000        -5.608902000502656E-009
   62.0943750000000        -5.646961832601992E-009
   62.3081250000000        -5.685281374045262E-009
   62.5218750000000        -5.724247343048969E-009
   62.7356250000000        -5.764307410407557E-009
   62.9493750000000        -5.805841548324156E-009
   63.1631250000000        -5.849036638414873E-009
   63.3768750000000        -5.893820170421792E-009
   63.5906250000000        -5.939842899616440E-009
   63.8043750000000        -5.986529929510535E-009
   64.0181250000000        -6.033168967484749E-009
   64.2318750000000        -6.079029491570916E-009
   64.4456250000000        -6.123477685034253E-009
   64.6593750000000        -6.166059667760227E-009
   64.8731250000000        -6.206535253759957E-009
   65.0868750000000        -6.244864688900363E-009
   65.3006250000000        -6.281140170435039E-009
   65.5143750000000        -6.315498499354563E-009
   65.7281250000000        -6.348030133419235E-009
   65.9418750000000        -6.378709401463151E-009
   66.1556250000000        -6.407385672512611E-009
   66.3693750000000        -6.433811473173142E-009
   66.5831250000000        -6.457738584261852E-009
   66.7968750000000        -6.479044340755345E-009
   67.0106250000000        -6.497853226824989E-009
   67.2243750000000        -6.514641107159226E-009
   67.4381250000000        -6.530272982900791E-009
   67.6518750000000        -6.545967522129150E-009
   67.8656250000000        -6.563187264845900E-009
   68.0793750000000        -6.583450985715926E-009
   68.2931250000000        -6.608126536011520E-009
   68.5068750000000        -6.638213400173398E-009
   68.7206250000000        -6.674178536266086E-009
   68.9343750000000        -6.715864375584710E-009
   69.1481250000000        -6.762507041572233E-009
   69.3618750000000        -6.812833781030942E-009
   69.5756250000000        -6.865259135537183E-009
   69.7893750000000        -6.918119639455022E-009
   70.0031250000000        -6.969904494876167E-009
   70.2168750000000        -7.019453424845024E-009
   70.4306250000000        -7.066068534301388E-009
   70.6443750000000        -7.109529309546961E-009
   70.8581250000000        -7.150010853940892E-009
   71.0718750000000        -7.187928067806924E-009
   71.2856250000000        -7.223745552000443E-009
   71.4993750000000        -7.257783318727273E-009
   71.7131250000000        -7.290081976402030E-009
   71.9268750000000        -7.320348828864331E-009
   72.1406250000000        -7.347988054273603E-009
   72.3543750000000        -7.372250843368413E-009
   72.5681250000000        -7.392419213960617E-009
   72.7818750000000        -7.408028219954288E-009
   72.9956250000000        -7.419057665270187E-009
   73.2093750000000        -7.426067030867794E-009
   73.4231250000000        -7.430221239762604E-009
   73.6368750000000        -7.433209181339641E-009
   73.8506250000000        -7.437065170015284E-009
   74.0643750000000        -7.443922428040459E-009
   74.2781250000000        -7.455736377862965E-009
   74.4918750000000        -7.474035330033200E-009
   74.7056250000000        -7.499738314327419E-009
   74.9193750000000        -7.533071567042032E-009
   75.1331250000000        -7.573594028206437E-009
   75.3468750000000        -7.620336762155524E-009
   75.5606250000000        -7.671992912355594E-009
   75.7743750000000        -7.727172460596415E-009
   75.9881250000000        -7.784618439053176E-009
   76.2018750000000        -7.843388051342757E-009
   76.4156250000000        -7.902943254577979E-009
   76.6293750000000        -7.963150190215563E-009
   76.8431250000000        -8.024196322352922E-009
   77.0568750000000        -8.086434837688662E-009
   77.2706250000000        -8.150205399174331E-009
   77.4843750000000        -8.215668960123027E-009
   77.6981250000000        -8.282676704798792E-009
   77.9118750000000        -8.350705747113205E-009
   78.1256250000000        -8.418884586697977E-009
   78.3393750000000        -8.486071529953701E-009
   78.5531250000000        -8.551000408427998E-009
   78.7668750000000        -8.612441195633202E-009
   78.9806250000000        -8.669359689477006E-009
   79.1943750000000        -8.721041433906286E-009
   79.4081250000000        -8.767169662224656E-009
   79.6218750000000        -8.807835783645682E-009
   79.8356250000000        -8.843503741761089E-009
   80.0493750000000        -8.874925715949762E-009
   80.2631250000000        -8.903039920433891E-009
   80.4768750000000        -8.928868816381293E-009
   80.6906250000000        -8.953422459970975E-009
   80.9043750000000        -8.977645550187442E-009
   81.1181250000000        -9.002381260807479E-009
   81.3318750000000        -9.028369024507924E-009
   81.5456250000000        -9.056249504008056E-009
   81.7593750000000        -9.086590335814074E-009
   81.9731250000000        -9.119886020193575E-009
   82.1868750000000        -9.156552099899350E-009
   82.4006250000000        -9.196883201824729E-009
   82.6143750000000        -9.241030756435646E-009
   82.8281250000000        -9.288925185202841E-009
   83.0418750000000        -9.340254977653491E-009
   83.2556250000000        -9.394413417540376E-009
   83.4693750000000        -9.450522997185711E-009
   83.6831250000000        -9.507469346024716E-009
   83.8968750000000        -9.563976193480026E-009
   84.1106250000000        -9.618720442021076E-009
   84.3243750000000        -9.670470460773923E-009
   84.5381250000000        -9.718215826327034E-009
   84.7518750000000        -9.761294200898599E-009
   84.9656250000000        -9.799489647196095E-009
   85.1793750000000        -9.833079163539836E-009
   85.3931250000000        -9.862838939789591E-009
   85.6068750000000        -9.889968855041216E-009
   85.8206250000000        -9.915999575445103E-009
   86.0343750000000        -9.942631501659670E-009
   86.2481250000000        -9.971561488828789E-009
   86.4618750000000        -1.000429838282171E-008
   86.6756250000000        -1.004200962609051E-008
   86.8893750000000        -1.008537728134621E-008
   87.1031250000000        -1.013454323637729E-008
   87.3168750000000        -1.018907314018577E-008
   87.5306250000000        -1.024803461665494E-008
   87.7443750000000        -1.031008235865388E-008
   87.9581250000000        -1.037364157165260E-008
   88.1718750000000        -1.043706957222463E-008
   88.3856250000000        -1.049886804295064E-008
   88.5993750000000        -1.055784255158606E-008
   88.8131250000000        -1.061324402218726E-008
   89.0268750000000        -1.066485102321676E-008
   89.2406250000000        -1.071299166136280E-008
   89.4543750000000        -1.075851810014648E-008
   89.6681250000000        -1.080272198752994E-008
   89.8818750000000        -1.084722103047357E-008
   90.0956250000000        -1.089383559662592E-008
   90.3093750000000        -1.094445946239204E-008
   90.5231250000000        -1.100095842986625E-008
   90.7368750000000        -1.106508125285711E-008
   90.9506250000000        -1.113839719980457E-008
   91.1643750000000        -1.122226977952967E-008
   91.3781250000000        -1.131780863906728E-008
   91.5918750000000        -1.142585425006379E-008
   91.8056250000000        -1.154692104192362E-008
   92.0193750000000        -1.168114212807485E-008
   92.2331250000000        -1.182819027263352E-008
   92.4468750000000        -1.198719702165273E-008
   92.6606250000000        -1.215667630568138E-008
   92.8743750000000        -1.233447591071053E-008
   93.0881250000000        -1.251778102327354E-008
   93.3018750000000        -1.270316854521343E-008
   93.5156250000000        -1.288672139591407E-008
   93.7293750000000        -1.306422974104080E-008
   93.9431250000000        -1.323140463997884E-008
   94.1568750000000        -1.338415245077118E-008
   94.3706250000000        -1.351882151037196E-008
   94.5843750000000        -1.363242845469943E-008
   94.7981250000000        -1.372283449525434E-008
   95.0118750000000        -1.378882686498466E-008
   95.2256250000000        -1.383012196303948E-008
   95.4393750000000        -1.384728228306399E-008
   95.6531250000000        -1.384155346973825E-008
   95.8668750000000        -1.381463492537097E-008
   96.0806250000000        -1.376842929423602E-008
   96.2943750000000        -1.370477127049796E-008
   96.5081250000000        -1.362517891662562E-008
   96.7218750000000        -1.353063715869984E-008
   96.9356250000000        -1.342145214915530E-008
   97.1493750000000        -1.329714854376522E-008
   97.3631250000000        -1.315645832595583E-008
   97.5768750000000        -1.299737936385874E-008
   97.7906250000000        -1.281730402483286E-008
   98.0043750000000        -1.261320974079742E-008
   98.2181250000000        -1.238190811813983E-008
   98.4318750000000        -1.212032957376906E-008
   98.6456250000000        -1.182582751575574E-008
   98.8593750000000        -1.149648217092694E-008
   99.0731250000000        -1.113137443767646E-008
   99.2868750000000        -1.073081279349208E-008
   99.5006250000000        -1.029648771772292E-008
   99.7143750000000        -9.831534347745339E-009
   99.9281250000000        -9.340487121616963E-009
   100.141875000000        -8.829158981359440E-009
   100.355625000000        -8.304403203635982E-009
   100.569375000000        -7.773828996034851E-009
   100.783125000000        -7.245453887540142E-009
   100.996875000000        -6.727365832986301E-009
   101.210625000000        -6.227363336230556E-009
   101.424375000000        -5.752671233729140E-009
   101.638125000000        -5.309672240126868E-009
   101.851875000000        -4.903714633128660E-009
   102.065625000000        -4.538965223506399E-009
   102.279375000000        -4.218312511378235E-009
   102.493125000000        -3.943299355201391E-009
   102.706875000000        -3.714092870829773E-009
   102.920625000000        -3.529467431712111E-009
   103.134375000000        -3.386827593968051E-009
   103.348125000000        -3.282261912481022E-009
   103.561875000000        -3.210658494734747E-009
   103.775625000000        -3.165885563668873E-009
   103.989375000000        -3.141053962546925E-009
   104.203125000000        -3.128868894389833E-009
   104.416875000000        -3.122051211565815E-009
   104.630625000000        -3.113795967437561E-009
   104.844375000000        -3.098258403897660E-009
   105.058125000000        -3.070999010937762E-009
   105.271875000000        -3.029330833334468E-009
   105.485625000000        -2.972561310723825E-009
   105.699375000000        -2.902063479082201E-009
   105.913125000000        -2.821180625504761E-009
   106.126875000000        -2.734969635626638E-009
   106.340625000000        -2.649798025944839E-009
   106.554375000000        -2.572846011595708E-009
   106.768125000000        -2.511568065417209E-009
   106.981875000000        -2.473144883225145E-009
   107.195625000000        -2.464004282772414E-009
   107.409375000000        -2.489412291131971E-009
   107.623125000000        -2.553187741193121E-009
   107.836875000000        -2.657528350782174E-009
   108.050625000000        -2.802931386886257E-009
   108.264375000000        -2.988219956877143E-009
   108.478125000000        -3.210630064074668E-009
   108.691875000000        -3.465939782463601E-009
   108.905625000000        -3.748644603286440E-009
   109.119375000000        -4.052144935336536E-009
   109.333125000000        -4.368983118620902E-009
   109.546875000000        -4.691096971528392E-009
   109.760625000000        -5.010115801578563E-009
   109.974375000000        -5.317714704413574E-009
   110.188125000000        -5.605977565917087E-009
   110.401875000000        -5.867813500054725E-009
   110.615625000000        -6.097330951643278E-009
   110.829375000000        -6.290206453141504E-009
   111.043125000000        -6.443954779770623E-009
   111.256875000000        -6.558098902391528E-009
   111.470625000000        -6.634203768902010E-009
   111.684375000000        -6.675761584442306E-009
   111.898125000000        -6.687936925390561E-009
   112.111875000000        -6.677193858674342E-009
   112.325625000000        -6.650829213963007E-009
   112.539375000000        -6.616473862524300E-009
   112.753125000000        -6.581592886848041E-009
   112.966875000000        -6.553044997756700E-009
   113.180625000000        -6.536721039644086E-009
   113.394375000000        -6.537296320344234E-009
   113.608125000000        -6.558098329952077E-009
   113.821875000000        -6.601091103463479E-009
   114.035625000000        -6.666943901042285E-009
   114.249375000000        -6.755170849824207E-009
   114.463125000000        -6.864313682858652E-009
   114.676875000000        -6.992133893667678E-009
   114.890625000000        -7.135801781805484E-009
   115.104375000000        -7.292069069351965E-009
   115.318125000000        -7.457424661359244E-009
   115.531875000000        -7.628227277557133E-009
   115.745625000000        -7.800839077793832E-009
   115.959375000000        -7.971738243182487E-009
   116.173125000000        -8.137648792180248E-009
   116.386875000000        -8.295668500033563E-009
   116.600625000000        -8.443377323757053E-009
   116.814375000000        -8.578953629378767E-009
   117.028125000000        -8.701233121918195E-009
   117.241875000000        -8.809748044517851E-009
   117.455625000000        -8.904692227403727E-009
   117.669375000000        -8.986843386172081E-009
   117.883125000000        -9.057416194026178E-009
   118.096875000000        -9.117881212639968E-009
   118.310625000000        -9.169758613246614E-009
   118.524375000000        -9.214417034162991E-009
   118.738125000000        -9.252898899577697E-009
   118.951875000000        -9.285801461929897E-009
   119.165625000000        -9.313232312019621E-009
   119.379375000000        -9.334841514759077E-009
   119.593125000000        -9.349940405068994E-009
   119.806875000000        -9.357660983655650E-009
   120.020625000000        -9.357184740034647E-009
   120.234375000000        -9.347957174508671E-009
   120.448125000000        -9.329896872562348E-009
   120.661875000000        -9.303541406232355E-009
   120.875625000000        -9.270137485722064E-009
   121.089375000000        -9.231644805285921E-009
   121.303125000000        -9.190655076355792E-009
   121.516875000000        -9.150250664331106E-009
   121.730625000000        -9.113811959607200E-009
   121.944375000000        -9.084800331677435E-009
   122.158125000000        -9.066534181382606E-009
   122.371875000000        -9.062002220353036E-009
   122.585625000000        -9.073688659893523E-009
   122.799375000000        -9.103463086360837E-009
   123.013125000000        -9.152492964651174E-009
   123.226875000000        -9.221200013652665E-009
   123.440625000000        -9.309236962826659E-009
   123.654375000000        -9.415477088424178E-009
   123.868125000000        -9.538015352968096E-009