  -1.60312500000000        -1.414687166669097E-023
  -1.38937500000000        -1.106587993846924E-023
  -1.17562500000000        -1.558324258843455E-022
 -0.961875000000000        -1.416486787130244E-021
 -0.748125000000000        -8.285657907694312E-021
 -0.534375000000000        -3.773909266032196E-020
 -0.320625000000000        -1.435572991410904E-019
 -0.106875000000000        -4.715121506616513E-019
  0.106875000000000        -1.362825299351645E-018
  0.320625000000000        -3.521224134714931E-018
  0.534375000000000        -8.233739243326211E-018
  0.748125000000000        -1.763211884816953E-017
  0.961875000000000        -3.492251105757978E-017
   1.17562500000000        -6.452271705821478E-017
   1.38937500000000        -1.120604914516500E-016
   1.60312500000000        -1.841140260240650E-016
   1.81687500000000        -2.877447617272094E-016
   2.03062500000000        -4.299231883243043E-016
   2.24437500000000        -6.167900332190681E-016
   2.45812500000000        -8.531868346458996E-016
   2.67187500000000        -1.142511886486765E-015
   2.88562500000000        -1.487106031942391E-015
   3.09937500000000        -1.889173130967966E-015
   3.31312500000000        -2.352477896899288E-015
   3.52687500000000        -2.884424093208431E-015
   3.74062500000000        -3.498432177604933E-015
   3.95437500000000        -4.215961345654504E-015
   4.16812500000000        -5.068001429964273E-015
   4.38187500000000        -6.095386250131810E-015
   4.59562500000000        -7.347299066163981E-015
   4.80937500000000        -8.878106927759207E-015
   5.02312500000000        -1.074188193367095E-014
   5.23687500000000        -1.298519148893761E-014
   5.45062500000000        -1.563849465648668E-014
   5.66437500000000        -1.870738414475588E-014
   5.87812500000000        -2.216497519591091E-014
   6.09187500000000        -2.594614123495694E-014
   6.30562500000000        -2.994613579855705E-014
   6.51937500000000        -3.402325088494223E-014
   6.73312500000000        -3.800668798492634E-014
   6.94687500000000        -4.170953418116999E-014
   7.16062500000000        -4.494516357941844E-014
   7.37437500000000        -4.754603331711213E-014
   7.58812500000000        -4.938247094427664E-014
   7.80187500000000        -5.037926810575283E-014
   8.01562500000000        -5.052772149194850E-014
   8.22937500000000        -4.989141317638616E-014
   8.44312500000000        -4.860435799643302E-014
   8.65687500000000        -4.686170971656909E-014
   8.87062500000000        -4.490353495264715E-014
   9.08437500000000        -4.299360283179129E-014
   9.29812500000000        -4.139584199421770E-014
   9.51187500000000        -4.035131435106958E-014
   9.72562500000000        -4.005898659613696E-014
   9.93937500000000        -4.066262989858351E-014
   10.1531250000000        -4.224541075116101E-014
   10.3668750000000        -4.483295181289361E-014
   10.5806250000000        -4.840371132583919E-014
   10.7943750000000        -5.290480578485184E-014
   11.0081250000000        -5.827052290054583E-014
   11.2218750000000        -6.444002905266299E-014
   11.4356250000000        -7.137117690189072E-014
   11.6493750000000        -7.904822103009123E-014
   11.8631250000000        -8.748172624732586E-014
   12.0768750000000        -9.670114881065913E-014
   12.2906250000000        -1.067414252014901E-013
   12.5043750000000        -1.176261204855547E-013
   12.7181250000000        -1.293507193597998E-013
   12.9318750000000        -1.418694086065813E-013
   13.1456250000000        -1.550887729215879E-013
   13.3593750000000        -1.688701189771540E-013
   13.5731250000000        -1.830412503734268E-013
   13.7868750000000        -1.974163799994481E-013
   14.0006250000000        -2.118220899587321E-013
   14.2143750000000        -2.261250702843261E-013
   14.4281250000000        -2.402577602191698E-013
   14.6418750000000        -2.542377387269838E-013
   14.8556250000000        -2.681771801491430E-013
   15.0693750000000        -2.822807774764412E-013
   15.2831250000000        -2.968318402770285E-013
   15.4968750000000        -3.121682095951630E-013
   15.7106250000000        -3.286514275040025E-013
   15.9243750000000        -3.466332846101320E-013
   16.1381250000000        -3.664247767154828E-013
   16.3518750000000        -3.882713917950719E-013
   16.5656250000000        -4.123384190459932E-013
   16.7793750000000        -4.387072489086725E-013
   16.9931250000000        -4.673823533468318E-013
   17.2068750000000        -4.983070764369107E-013
   17.4206250000000        -5.313844855873733E-013
   17.6343750000000        -5.664992474156573E-013
   17.8481250000000        -6.035363442599813E-013
   18.0618750000000        -6.423935431074589E-013
   18.2756250000000        -6.829856686267350E-013
   18.4893750000000        -7.252408545194448E-013
   18.7031250000000        -7.690902385466188E-013
   18.9168750000000        -8.144545278150669E-013
   19.1306250000000        -8.612308604354736E-013
   19.3443750000000        -9.092847071988555E-013
   19.5581250000000        -9.584492833309891E-013
   19.7718750000000        -1.008534888785444E-012
   19.9856250000000        -1.059347790101007E-012
   20.1993750000000        -1.110716273028803E-012
   20.4131250000000        -1.162520253612025E-012
   20.6268750000000        -1.214719119937811E-012
   20.8406250000000        -1.267372467411545E-012
   21.0543750000000        -1.320649078903696E-012
   21.2681250000000        -1.374821263907161E-012
   21.4818750000000        -1.430243419561318E-012
   21.6956250000000        -1.487317100083956E-012
   21.9093750000000        -1.546446714421191E-012
   22.1231250000000        -1.607991930039620E-012
   22.3368750000000        -1.672223970840356E-012
   22.5506250000000        -1.739292743873765E-012
   22.7643750000000        -1.809210274718394E-012
   22.9781250000000        -1.881853879412003E-012
   23.1918750000000        -1.956989145608900E-012
   23.4056250000000        -2.034310113202757E-012
   23.6193750000000        -2.113490793269596E-012
   23.8331250000000        -2.194240563408586E-012
   24.0468750000000        -2.276355010991778E-012
   24.2606250000000        -2.359754149369633E-012
   24.4743750000000        -2.444501967879369E-012
   24.6881250000000        -2.530804094893352E-012
   24.9018750000000        -2.618983436357832E-012
   25.1156250000000        -2.709437375338279E-012
   25.3293750000000        -2.802583165327969E-012
   25.5431250000000        -2.898799775440907E-012
   25.7568750000000        -2.998375566404905E-012
   25.9706250000000        -3.101469921159281E-012
   26.1843750000000        -3.208095171759094E-012
   26.3981250000000        -3.318121687160656E-012
   26.6118750000000        -3.431305236902384E-012
   26.8256250000000        -3.547332657744307E-012
   27.0393750000000        -3.665878100237914E-012
   27.2531250000000        -3.786660947209928E-012
   27.4668750000000        -3.909496229715308E-012
   27.6806250000000        -4.034329513538391E-012
   27.8943750000000        -4.161250905011213E-012
   28.1081250000000        -4.290486199838630E-012
   28.3218750000000        -4.422366976255746E-012
   28.5356250000000        -4.557284804575843E-012
   28.7493750000000        -4.695637806706645E-012
   28.9631250000000        -4.837777942060392E-012
   29.1768750000000        -4.983968480186009E-012
   29.3906250000000        -5.134358209219847E-012
   29.6043750000000        -5.288976713671322E-012
   29.8181250000000        -5.447751206106529E-012
   30.0318750000000        -5.610541872597030E-012
   30.2456250000000        -5.777189157469132E-012
   30.4593750000000        -5.947564717100815E-012
   30.6731250000000        -6.121616774419991E-012
   30.8868750000000        -6.299401660244492E-012
   31.1006250000000        -6.481095602128299E-012
   31.3143750000000        -6.666984288055297E-012
   31.5281250000000        -6.857431423095595E-012
   31.7418750000000        -7.052830994902269E-012
   31.9556250000000        -7.253551202033104E-012
   32.1693750000000        -7.459879326785847E-012
   32.3831250000000        -7.671976514777833E-012
   32.5968750000000        -7.889850749202195E-012
   32.8106250000000        -8.113352354578666E-012
   33.0243750000000        -8.342193778900996E-012
   33.2381250000000        -8.575990725757312E-012
   33.4518750000000        -8.814318564142457E-012
   33.6656250000000        -9.056775342321711E-012
   33.8793750000000        -9.303041665424174E-012
   34.0931250000000        -9.552928266223064E-012
   34.3068750000000        -9.806403647381860E-012
   34.5206250000000        -1.006359789561059E-011
   34.7343750000000        -1.032478219107584E-011
   34.9481250000000        -1.059032765082099E-011
   35.1618750000000        -1.086065046310680E-011
   35.3756250000000        -1.113615229162698E-011
   35.5893750000000        -1.141716611844534E-011
   35.8031250000000        -1.170391626487544E-011
   36.0168750000000        -1.199649943783431E-011
   36.2306250000000        -1.229488981626812E-011
   36.4443750000000        -1.259896726014858E-011
   36.6581250000000        -1.290856405816651E-011
   36.8718750000000        -1.322352181393930E-011
   37.0856250000000        -1.354374877711507E-011
   37.2993750000000        -1.386926706550035E-011
   37.5131250000000        -1.420024118721372E-011
   37.7268750000000        -1.453698139470673E-011
   37.9406250000000        -1.487991976920197E-011
   38.1543750000000        -1.522956147886553E-011
   38.3681250000000        -1.558641748441847E-011
   38.5818750000000        -1.595092904160051E-011
   38.7956250000000        -1.632339543309411E-011
   39.0093750000000        -1.670391773198719E-011
   39.2231250000000        -1.709236858735536E-011
   39.4368750000000        -1.748839606850409E-011
   39.6506250000000        -1.789146370366172E-011
   39.8643750000000        -1.830092415483031E-011
   40.0781250000000        -1.871611855496900E-011
   40.2918750000000        -1.913648851780020E-011
   40.5056250000000        -1.956168509197781E-011
   40.7193750000000        -1.999165752500540E-011
   40.9331250000000        -2.042670633442996E-011
   41.1468750000000        -2.086748820300160E-011
   41.3606250000000        -2.131496657682454E-011
   41.5743750000000        -2.177030844153355E-011
   41.7881250000000        -2.223473581668073E-011
   42.0018750000000        -2.270934821705525E-011
   42.2156250000000        -2.319493822214507E-011
   42.4293750000000        -2.369182608157434E-011
   42.6431250000000        -2.419974092817054E-011
   42.8568750000000        -2.471777244177905E-011
   43.0706250000000        -2.524441172047556E-011
   43.2843750000000        -2.577768938803774E-011
   43.4981250000000        -2.631540746772711E-011
   43.7118750000000        -2.685544792166531E-011
   43.9256250000000        -2.739612729219973E-011
   44.1393750000000        -2.793655498563135E-011
   44.3531250000000        -2.847694546816451E-011
   44.5668750000000        -2.901883179125756E-011
   44.7806250000000        -2.956513232361922E-011
   44.9943750000000        -3.012003367407426E-011
   45.2081250000000        -3.068867129981050E-011
   45.4218750000000        -3.127661381615617E-011
   45.6356250000000        -3.188918425619400E-011
   45.8493750000000        -3.253068144495462E-011
   46.0631250000000        -3.320358883932634E-011
   46.2768750000000        -3.390787777503118E-011
   46.4906250000000        -3.464051905745635E-011
   46.7043750000000        -3.539531010946021E-011
   46.9181250000000        -3.616310270816999E-011
   47.1318750000000        -3.693247752362173E-011
   47.3456250000000        -3.769085928799335E-011
   47.5593750000000        -3.842600522827838E-011
   47.7731250000000        -3.912773473568590E-011
   47.9868750000000        -3.978971106232245E-011
   48.2006250000000        -4.041104138419923E-011
   48.4143750000000        -4.099744332373948E-011
   48.6281250000000        -4.156173715409158E-011
   48.8418750000000        -4.212347039375278E-011
   49.0556250000000        -4.270756385436248E-011
   49.2693750000000        -4.334198165640294E-011
   49.4831250000000        -4.405456145487023E-011
   49.6968750000000        -4.486928050857323E-011
   49.9106250000000        -4.580236062450250E-011
   50.1243750000000        -4.685870976657022E-011
   50.3381250000000        -4.802924098860585E-011
   50.5518750000000        -4.928958709820205E-011
   50.7656250000000        -5.060063145761705E-011
   50.9793750000000        -5.191110256439040E-011
   51.1931250000000        -5.316224440531587E-011
   51.4068750000000        -5.429429572092289E-011
   51.6206250000000        -5.525422183944913E-011
   51.8343750000000        -5.600387933010980E-011
   52.0481250000000        -5.652759666618840E-011
   52.2618750000000        -5.683806323410885E-011
   52.4756250000000        -5.697946083314931E-011
   52.6893750000000        -5.702696518789814E-011
   52.9031250000000        -5.708208724235874E-011
   53.1168750000000        -5.726379220097131E-011
   53.3306250000000        -5.769588510784487E-011
   53.5443750000000        -5.849172619575154E-011
   53.7581250000000        -5.973785992072767E-011
   53.9718750000000        -6.147853466626795E-011
   54.1856250000000        -6.370327984222501E-011
   54.3993750000000        -6.633964030535671E-011
   54.6131250000000        -6.925281269036796E-011
   54.8268750000000        -7.225328971739340E-011
   55.0406250000000        -7.511273937297497E-011
   55.2543750000000        -7.758730582496973E-011
   55.4681250000000        -7.944643310467652E-011
   55.6818750000000        -8.050431568974972E-011
   55.8956250000000        -8.065031535189288E-011
   56.1093750000000        -7.987428520203831E-011
   56.3231250000000        -7.828281187671598E-011
   56.5368750000000        -7.610298224776391E-011
   56.7506250000000        -7.367139660258883E-011
   56.9643750000000        -7.140771530714464E-011
   57.1781250000000        -6.977389739211494E-011
   57.3918750000000        -6.922227114322589E-011
   57.6056250000000        -7.013742704887893E-011
   57.8193750000000        -7.277839126604440E-011
   58.0331250000000        -7.722838337462203E-011
   58.2468750000000        -8.335949874693654E-011
   58.4606250000000        -9.081877420944313E-011
   58.6743750000000        -9.904028540007510E-011
   58.8881250000000        -1.072853000141475E-010
   59.1018750000000        -1.147092926389357E-010
   59.3156250000000        -1.204511469017991E-010
   59.5293750000000        -1.237365240925067E-010
   59.7431250000000        -1.239846000718926E-010
   59.9568750000000        -1.209055733189837E-010
   60.1706250000000        -1.145758677421342E-010
   60.3843750000000        -1.054790101549735E-010
   60.5981250000000        -9.450280832421044E-011
   60.8118750000000        -8.288755565783977E-011
   61.0256250000000        -7.212521614531986E-011
   61.2393750000000        -6.381539665879680E-011
   61.4531250000000        -5.948976463772375E-011
   61.6668750000000        -6.042171529781637E-011
   61.8806250000000        -6.744184397663955E-011
   62.0943750000000        -8.078154249227920E-011
   62.3081250000000        -9.996638496954385E-011
   62.5218750000000        -1.237777198005655E-010
   62.7356250000000        -1.502951425702921E-010
   62.9493750000000        -1.770246972485057E-010
   63.1631250000000        -2.011084241285576E-010
   63.3768750000000        -2.196011616172073E-010
   63.5906250000000        -2.297913685358745E-010
   63.8043750000000        -2.295352558328731E-010
   64.0181250000000        -2.175686995338357E-010
   64.2318750000000        -1.937600396664717E-010
   64.4456250000000        -1.592694227114652E-010
   64.6593750000000        -1.165868939126825E-010
   64.8731250000000        -6.943163099964607E-011
   65.0868750000000        -2.250774775456543E-011
   65.3006250000000         1.887316926330242E-011
   65.5143750000000         4.927761995265870E-011
   65.7281250000000         6.370494911429865E-011
   65.9418750000000         5.816149262461492E-011
   66.1556250000000         3.019753695565242E-011
   66.3693750000000        -2.065109980757454E-011
   66.5831250000000        -9.257099018791813E-011
   66.7968750000000        -1.813729063018686E-010
   67.0106250000000        -2.806170511727857E-010
   67.2243750000000        -3.819723923052913E-010
   67.4381250000000        -4.757994545214104E-010
   67.6518750000000        -5.519239811041412E-010
   67.8656250000000        -6.005482855205285E-010
   68.0793750000000        -6.132298255268892E-010
   68.2931250000000        -5.838442584955956E-010
   68.5068750000000        -5.094443232841100E-010
   68.7206250000000        -3.909271835761280E-010
   68.9343750000000        -2.334316433674552E-010
   69.1481250000000        -4.640259137315071E-011
   69.3618750000000         1.567177218712152E-010
   69.5756250000000         3.591847934413841E-010
   69.7893750000000         5.420162317923811E-010
   70.0031250000000         6.853767496045136E-010
   70.2168750000000         7.702047045162776E-010
   70.4306250000000         7.799738836800690E-010
   70.6443750000000         7.024623485067707E-010
   70.8581250000000         5.313855360136813E-010
   71.0718750000000         2.677450838492791E-010
   71.2856250000000        -7.925072526287989E-011
   71.4993750000000        -4.918236060248195E-010
   71.7131250000000        -9.439210647952404E-010
   71.9268750000000        -1.402235887310843E-009
   72.1406250000000        -1.827966544857009E-009
   72.3543750000000        -2.179280528545947E-009
   72.5681250000000        -2.414382268213943E-009
   72.7818750000000        -2.495025418997379E-009
   72.9956250000000        -2.390250324752397E-009
   73.2093750000000        -2.080076429693096E-009
   73.4231250000000        -1.558841701058611E-009
   73.6368750000000        -8.378620977581797E-010
   73.8506250000000         5.291139907129207E-011
   74.0643750000000         1.064528940560386E-009
   74.2781250000000         2.130200816781554E-009
   74.4918750000000         3.168118674527487E-009
   74.7056250000000         4.085961513825421E-009
   74.9193750000000         4.786971388113507E-009
   75.1331250000000         5.177333752669585E-009
   75.3468750000000         5.174446205412568E-009
   75.5606250000000         4.715520045928988E-009
   75.7743750000000         3.765845824307213E-009
   75.9881250000000         2.325980931702274E-009
   76.2018750000000         4.370969221579008E-010
   76.4156250000000        -1.816233619768938E-009
   76.6293750000000        -4.306420733387838E-009
   76.8431250000000        -6.866843067418561E-009
   77.0568750000000        -9.299627578636581E-009
   77.2706250000000        -1.138712408835575E-008
   77.4843750000000        -1.290665423396131E-008
   77.6981250000000        -1.364778497765022E-008
   77.9118750000000        -1.343106693345623E-008
   78.1256250000000        -1.212691620856053E-008
   78.3393750000000        -9.673133311394305E-009
   78.5531250000000        -6.089468683965992E-009
   78.7668750000000        -1.487680429457838E-009
   78.9806250000000         3.924303434974252E-009
   79.1943750000000         9.845207460538096E-009
   79.4081250000000         1.589088512827318E-008
   79.6218750000000         2.161259734506353E-008
   79.8356250000000         2.652265082259701E-008
   80.0493750000000         3.012633362073354E-008
   80.2631250000000         3.195848034018915E-008
   80.4768750000000         3.162245872042635E-008
   80.6906250000000         2.882894026872214E-008
   80.9043750000000         2.343154290248239E-008
   81.1181250000000         1.545634804167190E-008
   81.3318750000000         5.122421308439361E-009
   81.5456250000000        -7.149185764913728E-009
   81.7593750000000        -2.073991202435713E-008
   81.9731250000000        -3.485284310543523E-008
   82.1868750000000        -4.854683721344006E-008
   82.4006250000000        -6.078489136462585E-008
   82.6143750000000        -7.049495716599467E-008
   82.8281250000000        -7.664037785815827E-008
   83.0418750000000        -7.829617712735520E-008
   83.2556250000000        -7.472665508982605E-008
   83.4693750000000        -6.545920182419173E-008
   83.6831250000000        -5.034897758144463E-008
   83.8968750000000        -2.962917097809678E-008
   84.1106250000000        -3.941954563679504E-009
   84.3243750000000         2.565398578100024E-008
   84.5381250000000         5.770238275803271E-008
   84.7518750000000         9.039643491906955E-008
   84.9656250000000         1.216540083358075E-007
   85.1793750000000         1.492192600332543E-007
   85.3931250000000         1.707871147962750E-007
   85.6068750000000         1.841452314643214E-007
   85.8206250000000         1.873264508318967E-007
   86.0343750000000         1.787633374985356E-007
   86.2481250000000         1.574354205808733E-007
   86.4618750000000         1.229992001712825E-007
   86.6756250000000         7.589099716857606E-008
   86.8893750000000         1.739333887264533E-008
   87.1031250000000        -5.034318323912409E-008
   87.3168750000000        -1.243287835317684E-007
   87.5306250000000        -2.008178449204093E-007
   87.7443750000000        -2.754476207149774E-007
   87.9581250000000        -3.434298477304173E-007
   88.1718750000000        -3.997893761631736E-007
   88.3856250000000        -4.396404563911241E-007
   88.5993750000000        -4.584880735425657E-007
   88.8131250000000        -4.525389118597936E-007
   89.0268750000000        -4.190043831253114E-007
   89.2406250000000        -3.563768683532641E-007
   89.4543750000000        -2.646600666878131E-007
   89.6681250000000        -1.455352375363499E-007
   89.8818750000000        -2.447216080455992E-009
   90.0956250000000         1.594026400424759E-007
   90.3093750000000         3.331650518217126E-007
   90.5231250000000         5.105561762655405E-007
   90.7368750000000         6.821730057268862E-007
   90.9506250000000         8.379018395442918E-007
   91.1643750000000         9.674046404510911E-007
   91.3781250000000         1.060662305354641E-006
   91.5918750000000         1.108548932999764E-006
   91.8056250000000         1.103407435771235E-006
   92.0193750000000         1.039594642895319E-006
   92.2331250000000         9.139636220281060E-007
   92.4468750000000         7.262524485974501E-007
   92.6606250000000         4.793521018824008E-007
   92.8743750000000         1.794314606034518E-007
   93.0881250000000        -1.640957226771946E-007
   93.3018750000000        -5.387688210018051E-007
   93.5156250000000        -9.294412827048538E-007
   93.7293750000000        -1.318793252584580E-006
   93.9431250000000        -1.687975624226885E-006
   94.1568750000000        -2.017357193171376E-006
   94.3706250000000        -2.287339906090717E-006
   94.5843750000000        -2.479202412782939E-006
   94.7981250000000        -2.575929587770240E-006
   95.0118750000000        -2.562985621453552E-006
   95.2256250000000        -2.428990754327699E-006
   95.4393750000000        -2.166266641831083E-006
   95.6531250000000        -1.771222426942141E-006
   95.8668750000000        -1.244562446303810E-006
   96.0806250000000        -5.913065606775351E-007
   96.2943750000000         1.793752527570013E-007
   96.5081250000000         1.054501865094367E-006
   96.7218750000000         2.017771584197226E-006
   96.9356250000000         3.050174118228309E-006
   97.1493750000000         4.130687342122423E-006
   97.3631250000000         5.237018390593489E-006
   97.5768750000000         6.346347382244662E-006
   97.7906250000000         7.436033630496005E-006
   98.0043750000000         8.484248413423816E-006
   98.2181250000000         9.470504966110314E-006
   98.4318750000000         1.037606486804916E-005
   98.6456250000000         1.118420982879614E-005
   98.8593750000000         1.188037833302749E-005
   99.0731250000000         1.245217694526257E-005
   99.2868750000000         1.288928554765166E-005
   99.5006250000000         1.318328369515002E-005
   99.7143750000000         1.332743102450632E-005
   99.9281250000000         1.331643779257017E-005
   100.141875000000         1.314626186726815E-005
   100.355625000000         1.281396577116317E-005
   100.569375000000         1.231766181013736E-005
   100.783125000000         1.165656523855027E-005
   100.996875000000         1.083116533215492E-005
   101.210625000000         9.843512830327119E-006
   101.424375000000         8.697610252294013E-006
   101.638125000000         7.399879934842698E-006
   101.851875000000         5.959674138604367E-006
   102.065625000000         4.389783038431144E-006
   102.279375000000         2.706890563741380E-006
   102.493125000000         9.319254527170336E-007
   102.706875000000        -9.097440922863507E-007
   102.920625000000        -2.788318951804027E-006
   103.134375000000        -4.669819123427197E-006
   103.348125000000        -6.516601613246353E-006
   103.561875000000        -8.288157789157228E-006
   103.775625000000        -9.942184934163063E-006
   103.989375000000        -1.143590869094225E-005
   104.203125000000        -1.272761490554110E-005
   104.416875000000        -1.377833217009210E-005
   104.630625000000        -1.455359125086775E-005
   104.844375000000        -1.502517563042795E-005
   105.058125000000        -1.517276953163746E-005
   105.271875000000        -1.498540678588550E-005
   105.485625000000        -1.446262628174980E-005
   105.699375000000        -1.361524772848419E-005
   105.913125000000        -1.246569502601707E-005
   106.126875000000        -1.104781325873254E-005
   106.340625000000        -9.406148508628732E-006
   106.554375000000        -7.594686293768233E-006
   106.768125000000        -5.675073192335827E-006
   106.981875000000        -3.714375612107258E-006
   107.195625000000        -1.782458072065270E-006
   107.409375000000         5.091091303908199E-008
   107.623125000000         1.719095860461493E-006
   107.836875000000         3.161629214890395E-006
   108.050625000000         4.327090601648447E-006
   108.264375000000         5.175676482941195E-006
   108.478125000000         5.681314349598792E-006
   108.691875000000         5.833192239026309E-006
   108.905625000000         5.636599132435888E-006
   109.119375000000         5.113003673932645E-006
   109.333125000000         4.299336211984210E-006
   109.546875000000         3.246480510715040E-006
   109.760625000000         2.017024405896143E-006
   109.974375000000         6.823607698631214E-007
   110.188125000000        -6.807310883074283E-007
   110.401875000000        -1.993860434008351E-006
   110.615625000000        -3.180968255882374E-006
   110.829375000000        -4.172234852188413E-006
   111.043125000000        -4.907743697448873E-006
   111.256875000000        -5.340700603216927E-006
   111.470625000000        -5.440025965338427E-006
   111.684375000000        -5.192167550409675E-006
   111.898125000000        -4.602020407526207E-006
   112.111875000000        -3.692887072782788E-006
   112.325625000000        -2.505462730862979E-006
   112.539375000000        -1.095883515708409E-006
   112.753125000000         4.670714140948829E-007
   112.966875000000         2.105485086366154E-006
   113.180625000000         3.736335017122207E-006
   113.394375000000         5.275840719192299E-006
   113.608125000000         6.643894400918410E-006
   113.821875000000         7.768335582593844E-006
   114.035625000000         8.588836548256173E-006
   114.249375000000         9.060184959556055E-006
   114.463125000000         9.154781573965655E-006
   114.676875000000         8.864213090440904E-006
   114.890625000000         8.199810325603740E-006
   115.104375000000         7.192157353296190E-006
   115.318125000000         5.889574759074920E-006
   115.531875000000         4.355656486090611E-006
   115.745625000000         2.665991671236264E-006
   115.959375000000         9.042474460711699E-007
   116.173125000000        -8.421766019129587E-007
   116.386875000000        -2.486688672332027E-006
   116.600625000000        -3.947996142946659E-006
   116.814375000000        -5.154308132866930E-006
   117.028125000000        -6.047026051376468E-006
   117.241875000000        -6.583727901665020E-006
   117.455625000000        -6.740291508527789E-006
   117.669375000000        -6.512049387642221E-006
   117.883125000000        -5.913920943244847E-006
   118.096875000000        -4.979523072086567E-006
   118.310625000000        -3.759314970266068E-006
   118.524375000000        -2.317883974103201E-006
   118.738125000000        -7.305238570537862E-007
   118.951875000000         9.207072032379370E-007
   119.165625000000         2.551236604553531E-006
   119.379375000000         4.078309517216424E-006
   119.593125000000         5.425176567021640E-006
   119.806875000000         6.524921438159418E-006
   120.020625000000         7.323735318808390E-006
   120.234375000000         7.783477469349084E-006
   120.448125000000         7.883401453403404E-006
   120.661875000000         7.620972380603979E-006
   120.875625000000         7.011749266357394E-006
   121.089375000000         6.088355623727872E-006
   121.303125000000         4.898608032325209E-006
   121.516875000000         3.502914251580176E-006
   121.730625000000         1.971087369676642E-006
   121.944375000000         3.787488548300165E-007
   122.158125000000        -1.196489929338030E-006
   122.371875000000        -2.678871738068426E-006
   122.585625000000        -3.998170787975884E-006
   122.799375000000        -5.093024731631527E-006
   123.013125000000        -5.913764730726427E-006
   123.226875000000        -6.424616457040042E-006
   123.440625000000        -6.605179640263106E-006
   123.654375000000        -6.451132021595536E-006
   123.868125000000        -5.974143197163661E-006