  -1.60312500000000        -5.361332092226561E-026
  -1.38937500000000         6.804343393022319E-019
  -1.17562500000000         4.856068453708333E-018
 -0.961875000000000         2.362633650639167E-017
 -0.748125000000000         9.256915027909899E-017
 -0.534375000000000         3.049176370617918E-016
 -0.320625000000000         8.613848134202661E-016
 -0.106875000000000         2.119103130115669E-015
  0.106875000000000         4.609686706653542E-015
  0.320625000000000         9.003207718267088E-015
  0.534375000000000         1.603055155395473E-014
  0.748125000000000         2.638843127727621E-014
  0.961875000000000         4.063826515164799E-014
   1.17562500000000         5.910490314030731E-014
   1.38937500000000         8.173028213706746E-014
   1.60312500000000         1.079181956090477E-013
   1.81687500000000         1.364001550926471E-013
   2.03062500000000         1.651133830617991E-013
   2.24437500000000         1.912088427498880E-013
   2.45812500000000         2.111200407952530E-013
   2.67187500000000         2.208091044679435E-013
   2.88562500000000         2.160864313941370E-013
   3.09937500000000         1.930399295740770E-013
   3.31312500000000         1.485225417283611E-013
   3.52687500000000         8.054191417189307E-014
   3.74062500000000        -1.134481329427812E-014
   3.95437500000000        -1.259199345977290E-013
   4.16812500000000        -2.602604359902658E-013
   4.38187500000000        -4.101288743240534E-013
   4.59562500000000        -5.703224830051828E-013
   4.80937500000000        -7.354119811299468E-013
   5.02312500000000        -9.003595450097672E-013
   5.23687500000000        -1.061142158178207E-012
   5.45062500000000        -1.215116917166409E-012
   5.66437500000000        -1.361170329460368E-012
   5.87812500000000        -1.499495502091666E-012
   6.09187500000000        -1.631033483361231E-012
   6.30562500000000        -1.756735066236513E-012
   6.51937500000000        -1.876639059539458E-012
   6.73312500000000        -1.989106174954397E-012
   6.94687500000000        -2.090279487297859E-012
   7.16062500000000        -2.173976538281243E-012
   7.37437500000000        -2.232087850816854E-012
   7.58812500000000        -2.255478184939476E-012
   7.80187500000000        -2.235251607663201E-012
   8.01562500000000        -2.164288332231822E-012
   8.22937500000000        -2.038701860773046E-012
   8.44312500000000        -1.858875386890157E-012
   8.65687500000000        -1.630078564307332E-012
   8.87062500000000        -1.362213426164490E-012
   9.08437500000000        -1.068883094059924E-012
   9.29812500000000        -7.657481098279586E-013
   9.51187500000000        -4.684553993963307E-013
   9.72562500000000        -1.905855081831797E-013
   9.93937500000000         5.826202974080556E-014
   10.1531250000000         2.736980993352437E-013
   10.3668750000000         4.568417512298494E-013
   10.5806250000000         6.137809347743695E-013
   10.7943750000000         7.540652026785227E-013
   11.0081250000000         8.886507204181579E-013
   11.2218750000000         1.027548832630566E-012
   11.4356250000000         1.177735062512519E-012
   11.6493750000000         1.341678489067411E-012
   11.8631250000000         1.516758127127663E-012
   12.0768750000000         1.695852643356605E-012
   12.2906250000000         1.868852857978535E-012
   12.5043750000000         2.024888173648836E-012
   12.7181250000000         2.155024004565163E-012
   12.9318750000000         2.254578015940554E-012
   13.1456250000000         2.324843047390243E-012
   13.3593750000000         2.373760854464159E-012
   13.5731250000000         2.415266529489644E-012
   13.7868750000000         2.467584186783825E-012
   14.0006250000000         2.550350170759279E-012
   14.2143750000000         2.681509703192444E-012
   14.4281250000000         2.874189558994498E-012
   14.6418750000000         3.134162861294135E-012
   14.8556250000000         3.458497086040821E-012
   15.0693750000000         3.835593570317539E-012
   15.2831250000000         4.246494607332273E-012
   15.4968750000000         4.667435683516406E-012
   15.7106250000000         5.073085228688751E-012
   15.9243750000000         5.439984686594032E-012
   16.1381250000000         5.749499399112555E-012
   16.3518750000000         5.990077235560752E-012
   16.5656250000000         6.158011617679900E-012
   16.7793750000000         6.257150968188158E-012
   16.9931250000000         6.297362586246115E-012
   17.2068750000000         6.292110425870353E-012
   17.4206250000000         6.255816188382962E-012
   17.6343750000000         6.201320877008021E-012
   17.8481250000000         6.137906650700703E-012
   18.0618750000000         6.070371081039726E-012
   18.2756250000000         5.998992285564051E-012
   18.4893750000000         5.920503531211881E-012
   18.7031250000000         5.829813540886024E-012
   18.9168750000000         5.721870057561614E-012
   19.1306250000000         5.593655807099913E-012
   19.3443750000000         5.445538550817454E-012
   19.5581250000000         5.281994787685713E-012
   19.7718750000000         5.111629887569187E-012
   19.9856250000000         4.946198588326826E-012
   20.1993750000000         4.799355401665340E-012
   20.4131250000000         4.684877393003579E-012
   20.6268750000000         4.615025299992130E-012
   20.8406250000000         4.599148111212422E-012
   21.0543750000000         4.642745630364659E-012
   21.2681250000000         4.747024476182523E-012
   21.4818750000000         4.909129357107169E-012
   21.6956250000000         5.122657254957989E-012
   21.9093750000000         5.378521740531814E-012
   22.1231250000000         5.665892123257795E-012
   22.3368750000000         5.973145472624229E-012
   22.5506250000000         6.288670421884031E-012
   22.7643750000000         6.601481377279381E-012
   22.9781250000000         6.901734282794392E-012
   23.1918750000000         7.181094995702662E-012
   23.4056250000000         7.433025091192246E-012
   23.6193750000000         7.652988153036123E-012
   23.8331250000000         7.838687583352979E-012
   24.0468750000000         7.990124364165152E-012
   24.2606250000000         8.109609789214871E-012
   24.4743750000000         8.201598006481853E-012
   24.6881250000000         8.272327652879616E-012
   24.9018750000000         8.329331539279749E-012
   25.1156250000000         8.380844492403718E-012
   25.3293750000000         8.435170948264597E-012
   25.5431250000000         8.500131366491049E-012
   25.7568750000000         8.582702006092106E-012
   25.9706250000000         8.688863873136765E-012
   26.1843750000000         8.823676599902554E-012
   26.3981250000000         8.991450236552103E-012
   26.6118750000000         9.196119549067170E-012
   26.8256250000000         9.441448185463161E-012
   27.0393750000000         9.731015219822654E-012
   27.2531250000000         1.006802527959281E-011
   27.4668750000000         1.045481161551256E-011
   27.6806250000000         1.089205116391660E-011
   27.8943750000000         1.137790899566308E-011
   28.1081250000000         1.190739336255418E-011
   28.3218750000000         1.247182390801684E-011
   28.5356250000000         1.305886279441072E-011
   28.7493750000000         1.365304763886126E-011
   28.9631250000000         1.423695576025853E-011
   29.1768750000000         1.479269196413783E-011
   29.3906250000000         1.530370006118968E-011
   29.6043750000000         1.575645732420843E-011
   29.8181250000000         1.614200995334139E-011
   30.0318750000000         1.645676886084250E-011
   30.2456250000000         1.670282294772891E-011
   30.4593750000000         1.688735422617175E-011
   30.6731250000000         1.702150196965736E-011
   30.8868750000000         1.711874211517842E-011
   31.1006250000000         1.719309909380201E-011
   31.3143750000000         1.725749285750709E-011
   31.5281250000000         1.732237510265307E-011
   31.7418750000000         1.739496821252974E-011
   31.9556250000000         1.747908430420322E-011
   32.1693750000000         1.757552086888263E-011
   32.3831250000000         1.768289525930853E-011
   32.5968750000000         1.779862455925767E-011
   32.8106250000000         1.791999282225372E-011
   33.0243750000000         1.804494716789859E-011
   33.2381250000000         1.817247946703325E-011
   33.4518750000000         1.830268617786735E-011
   33.6656250000000         1.843639628128562E-011
   33.8793750000000         1.857459479717036E-011
   34.0931250000000         1.871768655159001E-011
   34.3068750000000         1.886492155001545E-011
   34.5206250000000         1.901409804919766E-011
   34.7343750000000         1.916151357468234E-011
   34.9481250000000         1.930238978895503E-011
   35.1618750000000         1.943154435261041E-011
   35.3756250000000         1.954431569895044E-011
   35.5893750000000         1.963750170943366E-011
   35.8031250000000         1.971013202265689E-011
   36.0168750000000         1.976405204458848E-011
   36.2306250000000         1.980405217989411E-011
   36.4443750000000         1.983766796839578E-011
   36.6581250000000         1.987446930718106E-011
   36.8718750000000         1.992514665109919E-011
   37.0856250000000         2.000035423695542E-011
   37.2993750000000         2.010957690452926E-011
   37.5131250000000         2.025996892429916E-011
   37.7268750000000         2.045557360723977E-011
   37.9406250000000         2.069682366460390E-011
   38.1543750000000         2.098041424877874E-011
   38.3681250000000         2.129968067670159E-011
   38.5818750000000         2.164525763242407E-011
   38.7956250000000         2.200614668523273E-011
   39.0093750000000         2.237093723286261E-011
   39.2231250000000         2.272908718421560E-011
   39.4368750000000         2.307215065100286E-011
   39.6506250000000         2.339474052603997E-011
   39.8643750000000         2.369513099031959E-011
   40.0781250000000         2.397538742783021E-011
   40.2918750000000         2.424104236102457E-011
   40.5056250000000         2.450029422866902E-011
   40.7193750000000         2.476282201952171E-011
   40.9331250000000         2.503841326936969E-011
   41.1468750000000         2.533564065792589E-011
   41.3606250000000         2.566057697741828E-011
   41.5743750000000         2.601606734881198E-011
   41.7881250000000         2.640145431594436E-011
   42.0018750000000         2.681276987013861E-011
   42.2156250000000         2.724348112635728E-011
   42.4293750000000         2.768576880777584E-011
   42.6431250000000         2.813168532720630E-011
   42.8568750000000         2.857452138883333E-011
   43.0706250000000         2.900967495183809E-011
   43.2843750000000         2.943519600762396E-011
   43.4981250000000         2.985169754541655E-011
   43.7118750000000         3.026174847389523E-011
   43.9256250000000         3.066885983253664E-011
   44.1393750000000         3.107625374151334E-011
   44.3531250000000         3.148566317510094E-011
   44.5668750000000         3.189650063772675E-011
   44.7806250000000         3.230540663706214E-011
   44.9943750000000         3.270650191839507E-011
   45.2081250000000         3.309215732775025E-011
   45.4218750000000         3.345422445570792E-011
   45.6356250000000         3.378552927242553E-011
   45.8493750000000         3.408121480857875E-011
   46.0631250000000         3.433983706681579E-011
   46.2768750000000         3.456386618808082E-011
   46.4906250000000         3.475946087272144E-011
   46.7043750000000         3.493568705151680E-011
   46.9181250000000         3.510307102367351E-011
   47.1318750000000         3.527194719856927E-011
   47.3456250000000         3.545079520425326E-011
   47.5593750000000         3.564482390640263E-011
   47.7731250000000         3.585529994544036E-011
   47.9868750000000         3.607933535021273E-011
   48.2006250000000         3.631070176059196E-011
   48.4143750000000         3.654109109460471E-011
   48.6281250000000         3.676182859633830E-011
   48.8418750000000         3.696572924547982E-011
   49.0556250000000         3.714862511937504E-011
   49.2693750000000         3.731055388044315E-011
   49.4831250000000         3.745603828345138E-011
   49.6968750000000         3.759367793309019E-011
   49.9106250000000         3.773506041102237E-011
   50.1243750000000         3.789299715819663E-011
   50.3381250000000         3.807961612611672E-011
   50.5518750000000         3.830443800062733E-011
   50.7656250000000         3.857286546349989E-011
   50.9793750000000         3.888521600801273E-011
   51.1931250000000         3.923659791628395E-011
   51.4068750000000         3.961755744616122E-011
   51.6206250000000         4.001530907673757E-011
   51.8343750000000         4.041561006709892E-011
   52.0481250000000         4.080467107293824E-011
   52.2618750000000         4.117107883894320E-011
   52.4756250000000         4.150722032525414E-011
   52.6893750000000         4.181018004848264E-011
   52.9031250000000         4.208192898246024E-011
   53.1168750000000         4.232869508977690E-011
   53.3306250000000         4.255985662385361E-011
   53.5443750000000         4.278635685545129E-011
   53.7581250000000         4.301904437408315E-011
   53.9718750000000         4.326705666373150E-011
   54.1856250000000         4.353669910435450E-011
   54.3993750000000         4.383084480151918E-011
   54.6131250000000         4.414891904574267E-011
   54.8268750000000         4.448753592413582E-011
   55.0406250000000         4.484153229224729E-011
   55.2543750000000         4.520531579217999E-011
   55.4681250000000         4.557412909261356E-011
   55.6818750000000         4.594506207013375E-011
   55.8956250000000         4.631758029353170E-011
   56.1093750000000         4.669347122935267E-011
   56.3231250000000         4.707623888095288E-011
   56.5368750000000         4.747003451831453E-011
   56.7506250000000         4.787823707994589E-011
   56.9643750000000         4.830223234769328E-011
   57.1781250000000         4.874035186157437E-011
   57.3918750000000         4.918738395421367E-011
   57.6056250000000         4.963477984061473E-011
   57.8193750000000         5.007156552410757E-011
   58.0331250000000         5.048574448534778E-011
   58.2468750000000         5.086621499095441E-011
   58.4606250000000         5.120451286069400E-011
   58.6743750000000         5.149641432299487E-011
   58.8881250000000         5.174289546546983E-011
   59.1018750000000         5.195027960611374E-011
   59.3156250000000         5.212958643249466E-011
   59.5293750000000         5.229509048303971E-011
   59.7431250000000         5.246239757784178E-011
   59.9568750000000         5.264629754024659E-011
   60.1706250000000         5.285880016549923E-011
   60.3843750000000         5.310768823908193E-011
   60.5981250000000         5.339580920620311E-011
   60.8118750000000         5.372118315834566E-011
   61.0256250000000         5.407795323798869E-011
   61.2393750000000         5.445783899048816E-011
   61.4531250000000         5.485193359835464E-011
   61.6668750000000         5.525234481975879E-011
   61.8806250000000         5.565353264381987E-011
   62.0943750000000         5.605294641567339E-011
   62.3081250000000         5.645107432613045E-011
   62.5218750000000         5.685072616542095E-011
   62.7356250000000         5.725587664781542E-011
   62.9493750000000         5.767044508985342E-011
   63.1631250000000         5.809696503117388E-011
   63.3768750000000         5.853584724206872E-011
   63.5906250000000         5.898501643849416E-011
   63.8043750000000         5.944021831681116E-011
   64.0181250000000         5.989571154585480E-011
   64.2318750000000         6.034530582982507E-011
   64.4456250000000         6.078339212764222E-011
   64.6593750000000         6.120574405474801E-011
   64.8731250000000         6.160990248879352E-011
   65.0868750000000         6.199513268074887E-011
   65.3006250000000         6.236184969654502E-011
   65.5143750000000         6.271092719764658E-011
   65.7281250000000         6.304286790617351E-011
   65.9418750000000         6.335721681173169E-011
   66.1556250000000         6.365248811436429E-011
   66.3693750000000         6.392640312694655E-011
   66.5831250000000         6.417679189077084E-011
   66.7968750000000         6.440271643609259E-011
   67.0106250000000         6.460557348048615E-011
   67.2243750000000         6.479004895610881E-011
   67.4381250000000         6.496438877171207E-011
   67.6518750000000         6.514007951259373E-011
   67.8656250000000         6.533073781049769E-011
   68.0793750000000         6.555039039233060E-011
   68.2931250000000         6.581149876435352E-011
   68.5068750000000         6.612294906542927E-011
   68.7206250000000         6.648853882554785E-011
   68.9343750000000         6.690617931778037E-011
   69.1481250000000         6.736810552411568E-011
   69.3618750000000         6.786186389866554E-011
   69.5756250000000         6.837220557251168E-011
   69.7893750000000         6.888331918602660E-011
   70.0031250000000         6.938100919468849E-011
   70.2168750000000         6.985453720098717E-011
   70.4306250000000         7.029762891538342E-011
   70.6443750000000         7.070855122748581E-011
   70.8581250000000         7.108928685727917E-011
   71.0718750000000         7.144401532629671E-011
   71.2856250000000         7.177727728899574E-011
   71.4993750000000         7.209215880125172E-011
   71.7131250000000         7.238907822243209E-011
   71.9268750000000         7.266531677403320E-011
   72.1406250000000         7.291540428627827E-011
   72.3543750000000         7.313261241461657E-011
   72.5681250000000         7.331074544301948E-011
   72.7818750000000         7.344626318948377E-011
   72.9956250000000         7.354005360861000E-011
   73.2093750000000         7.359862783864831E-011
   73.4231250000000         7.363424212579617E-011
   73.6368750000000         7.366397090088286E-011
   73.8506250000000         7.370786150586287E-011
   74.0643750000000         7.378649484855174E-011
   74.2781250000000         7.391827459229326E-011
   74.4918750000000         7.411707748881333E-011
   74.7056250000000         7.439054544026714E-011
   74.9193750000000         7.473945115703158E-011
   75.1331250000000         7.515806683294557E-011
   75.3468750000000         7.563566341566548E-011
   75.5606250000000         7.615850306605993E-011
   75.7743750000000         7.671234600289782E-011
   75.9881250000000         7.728459901394435E-011
   76.2018750000000         7.786604234250164E-011
   76.4156250000000         7.845164789910420E-011
   76.6293750000000         7.904049665461458E-011
   76.8431250000000         7.963484440697774E-011
   77.0568750000000         8.023858263558439E-011
   77.2706250000000         8.085541630221326E-011
   77.4843750000000         8.148724261522845E-011
   77.6981250000000         8.213289277227227E-011
   77.9118750000000         8.278756777104247E-011
   78.1256250000000         8.344310522964416E-011
   78.3393750000000         8.408883386279633E-011
   78.5531250000000         8.471300369485165E-011
   78.7668750000000         8.530437755867736E-011
   78.9806250000000         8.585375063504147E-011
   79.1943750000000         8.635515052991827E-011
   79.4081250000000         8.680649008965800E-011
   79.6218750000000         8.720960742623915E-011
   79.8356250000000         8.756983761538452E-011
   80.0493750000000         8.789511880115597E-011
   80.2631250000000         8.819492691752472E-011
   80.4768750000000         8.847927092937687E-011
   80.6906250000000         8.875771630974392E-011
   80.9043750000000         8.903888606863689E-011
   81.1181250000000         8.933014783621448E-011
   81.3318750000000         8.963759529480311E-011
   81.5456250000000         8.996619144244138E-011
   81.7593750000000         9.032004925531537E-011
   81.9731250000000         9.070247883849110E-011
   82.1868750000000         9.111600836678735E-011
   82.4006250000000         9.156202843847183E-011
   82.6143750000000         9.204059273283285E-011
   82.8281250000000         9.254974149086125E-011
   83.0418750000000         9.308528830488812E-011
   83.2556250000000         9.364031488383120E-011
   83.4693750000000         9.420541778014118E-011
   83.6831250000000         9.476900157446349E-011
   83.8968750000000         9.531800316039549E-011
   84.1106250000000         9.583898277332439E-011
   84.3243750000000         9.631946983069989E-011
   84.5381250000000         9.674925417875431E-011
   84.7518750000000         9.712166660972308E-011
   84.9656250000000         9.743464817552461E-011
   85.1793750000000         9.769130564495240E-011
   85.3931250000000         9.790010967800279E-011
   85.6068750000000         9.807429883609545E-011
   85.8206250000000         9.823109669121965E-011
   86.0343750000000         9.839017311387816E-011
   86.2481250000000         9.857194764351297E-011
   86.4618750000000         9.879571385155687E-011
   86.6756250000000         9.907793651925979E-011
   86.8893750000000         9.943057334889904E-011
   87.1031250000000         9.986023848412489E-011
   87.3168750000000         1.003674961452562E-010
   87.5306250000000         1.009472219768729E-010
   87.7443750000000         1.015891680206234E-010
   87.9581250000000         1.022794700554478E-010
   88.1718750000000         1.030020650486035E-010
   88.3856250000000         1.037406536379569E-010
   88.5993750000000         1.044803299530121E-010
   88.8131250000000         1.052090036555105E-010
   89.0268750000000         1.059184205433173E-010
   89.2406250000000         1.066045514518090E-010
   89.4543750000000         1.072676360188541E-010
   89.6681250000000         1.079115627433779E-010
   89.8818750000000         1.085431118004765E-010
   90.0956250000000         1.091709914718220E-010
   90.3093750000000         1.098048791258097E-010
   90.5231250000000         1.104547846853766E-010
   90.7368750000000         1.111304447556033E-010
   90.9506250000000         1.118411368868436E-010
   91.1643750000000         1.125956705782122E-010
   91.3781250000000         1.134023015533744E-010
   91.5918750000000         1.142688012704496E-010
   91.8056250000000         1.152021473841617E-010
   92.0193750000000         1.162080789803918E-010
   92.2331250000000         1.172903294749386E-010
   92.4468750000000         1.184497680164815E-010
   92.6606250000000         1.196834183959027E-010
   92.8743750000000         1.209836961396931E-010
   93.0881250000000         1.223381188511264E-010
   93.3018750000000         1.237293929913715E-010
   93.5156250000000         1.251361996173787E-010
   93.7293750000000         1.265347407185250E-010
   93.9431250000000         1.279005434796032E-010
   94.1568750000000         1.292108689305130E-010
   94.3706250000000         1.304469208194099E-010
   94.5843750000000         1.315959340851139E-010
   94.7981250000000         1.326527593614378E-010
   95.0118750000000         1.336206199625554E-010
   95.2256250000000         1.345109983713568E-010
   95.4393750000000         1.353427593812544E-010
   95.6531250000000         1.361403845382252E-010
   95.8668750000000         1.369315408962362E-010
   96.0806250000000         1.377443770964191E-010
   96.2943750000000         1.386045763832177E-010
   96.5081250000000         1.395325891961282E-010
   96.7218750000000         1.405411448387061E-010
   96.9356250000000         1.416334121285616E-010
   97.1493750000000         1.428016431711376E-010
   97.3631250000000         1.440266898703308E-010
   97.5768750000000         1.452782538357088E-010
   97.7906250000000         1.465158904451466E-010
   98.0043750000000         1.476907453747879E-010
   98.2181250000000         1.487479078327379E-010
   98.4318750000000         1.496293315063250E-010
   98.6456250000000         1.502770004029350E-010
   98.8593750000000         1.506362839922572E-010
   99.0731250000000         1.506591581248830E-010
   99.2868750000000         1.503070594855831E-010
   99.5006250000000         1.495531674853415E-010
   99.7143750000000         1.483838446993422E-010
   99.9281250000000         1.467991098171367E-010
   100.141875000000         1.448123640387907E-010
   100.355625000000         1.424489608603785E-010
   100.569375000000         1.397443170339980E-010
   100.783125000000         1.367412873286624E-010
   100.996875000000         1.334876190229788E-010
   101.210625000000         1.300330815967964E-010
   101.424375000000         1.264272472666079E-010
   101.638125000000         1.227173190197274E-010
   101.851875000000         1.189466709452707E-010
   102.065625000000         1.151536276837899E-010
   102.279375000000         1.113707089543249E-010
   102.493125000000         1.076240086713172E-010
   102.706875000000         1.039327718090812E-010
   102.920625000000         1.003089793519055E-010
   103.134375000000         9.675713530071520E-011
   103.348125000000         9.327418429949638E-011
   103.561875000000         8.984983836851799E-011
   103.775625000000         8.646743371530447E-011
   103.989375000000         8.310537053869857E-011
   104.203125000000         7.973943493754822E-011
   104.416875000000         7.634564087916688E-011
   104.630625000000         7.290355372399229E-011
   104.844375000000         6.939985781115895E-011
   105.058125000000         6.583173281074542E-011
   105.271875000000         6.220939496385536E-011
   105.485625000000         5.855782179740642E-011
   105.699375000000         5.491708088083375E-011
   105.913125000000         5.134122203123534E-011
   106.126875000000         4.789585896004865E-011
   106.340625000000         4.465448102181692E-011
   106.554375000000         4.169402707808307E-011
   106.768125000000         3.909013148047193E-011
   106.981875000000         3.691238781964164E-011
   107.195625000000         3.522024642520789E-011
   107.409375000000         3.405961004932354E-011
   107.623125000000         3.346057272067018E-011
   107.836875000000         3.343616374806097E-011
   108.050625000000         3.398197031822054E-011
   108.264375000000         3.507668544822496E-011
   108.478125000000         3.668323335944065E-011
   108.691875000000         3.875020915476567E-011
   108.905625000000         4.121374926069990E-011
   109.119375000000         4.399949670887140E-011
   109.333125000000         4.702497719061754E-011
   109.546875000000         5.020215443432661E-011
   109.760625000000         5.344026412721689E-011
   109.974375000000         5.664929622802821E-011
   110.188125000000         5.974339963910078E-011
   110.401875000000         6.264486460220990E-011
   110.615625000000         6.528765938012202E-011
   110.829375000000         6.762092120783364E-011
   111.043125000000         6.961155688457593E-011
   111.256875000000         7.124594531941223E-011
   111.470625000000         7.253040491656560E-011
   111.684375000000         7.349034796359589E-011
   111.898125000000         7.416811642250994E-011
   112.111875000000         7.461977780182590E-011
   112.325625000000         7.491102538900454E-011
   112.539375000000         7.511267109917548E-011
   112.753125000000         7.529608638264582E-011
   112.966875000000         7.552899575866037E-011
   113.180625000000         7.587187700308414E-011
   113.394375000000         7.637522618605571E-011
   113.608125000000         7.707771040938849E-011
   113.821875000000         7.800534860613018E-011
   114.035625000000         7.917132406030519E-011
   114.249375000000         8.057650871851560E-011
   114.463125000000         8.221048122054767E-011
   114.676875000000         8.405272528561900E-011
   114.890625000000         8.607406856284503E-011
   115.104375000000         8.823820451434294E-011
   115.318125000000         9.050325477423253E-011
   115.531875000000         9.282341199145375E-011
   115.745625000000         9.515079859551344E-011
   115.959375000000         9.743723786452464E-011
   116.173125000000         9.963631275732908E-011
   116.386875000000         1.017054407060921E-010
   116.600625000000         1.036077324137361E-010
   116.814375000000         1.053138723860692E-010
   117.028125000000         1.068034054380594E-010
   117.241875000000         1.080656911073221E-010
   117.455625000000         1.091000799515057E-010
   117.669375000000         1.099155406989784E-010
   117.883125000000         1.105295031307496E-010
   118.096875000000         1.109661979659377E-010
   118.310625000000         1.112545495675472E-010
   118.524375000000         1.114258846027062E-010
   118.738125000000         1.115116874640835E-010
   118.951875000000         1.115415497374866E-010
   119.165625000000         1.115416272218829E-010
   119.379375000000         1.115336401812999E-010
   119.593125000000         1.115345216742652E-010
   119.806875000000         1.115564874967848E-010
   120.020625000000         1.116078091813239E-010
   120.234375000000         1.116936796900521E-010
   120.448125000000         1.118173758929128E-010
   120.661875000000         1.119811490710833E-010
   120.875625000000         1.121871346929918E-010
   121.089375000000         1.124378011256078E-010
   121.303125000000         1.127360730503502E-010
   121.516875000000         1.130851957036551E-010
   121.730625000000         1.134883576358437E-010
   121.944375000000         1.139481913666484E-010
   122.158125000000         1.144662078580963E-010
   122.371875000000         1.150425319777314E-010
   122.585625000000         1.156755182645688E-010
   122.799375000000         1.163617719468980E-010
   123.013125000000         1.170961520562509E-010
   123.226875000000         1.178719315721055E-010
   123.440625000000         1.186808964034988E-010
   123.654375000000         1.195134077358010E-010
   123.868125000000         1.203583298367353E-010