  -1.60312500000000         2.061933985865906E-019
  -1.38937500000000         5.642427740800295E-018
  -1.17562500000000         3.526028876993465E-017
 -0.961875000000000         1.550100284510994E-016
 -0.748125000000000         5.483515946261168E-016
 -0.534375000000000         1.593779049842315E-015
 -0.320625000000000         3.786627857225234E-015
 -0.106875000000000         7.130023187080098E-015
  0.106875000000000         9.640838465563162E-015
  0.320625000000000         4.805062931212483E-015
  0.534375000000000        -2.136803030180541E-014
  0.748125000000000        -9.295988556977220E-014
  0.961875000000000        -2.455794437402412E-013
   1.17562500000000        -5.264157410345489E-013
   1.38937500000000        -9.926311847043481E-013
   1.60312500000000        -1.709125920784943E-012
   1.81687500000000        -2.743290726976835E-012
   2.03062500000000        -4.160357132844840E-012
   2.24437500000000        -6.015406250767680E-012
   2.45812500000000        -8.347874027425131E-012
   2.67187500000000        -1.117192086604977E-011
   2.88562500000000        -1.447588050157138E-011
   3.09937500000000        -1.821262201826977E-011
   3.31312500000000        -2.230641071512736E-011
   3.52687500000000        -2.665183689949061E-011
   3.74062500000000        -3.112172361578348E-011
   3.95437500000000        -3.557691224119150E-011
   4.16812500000000        -3.987609937963651E-011
   4.38187500000000        -4.388927306792549E-011
   4.59562500000000        -4.750404798400566E-011
   4.80937500000000        -5.063658774634373E-011
   5.02312500000000        -5.323504138614974E-011
   5.23687500000000        -5.528021766351533E-011
   5.45062500000000        -5.678435552948932E-011
   5.66437500000000        -5.778278483596734E-011
   5.87812500000000        -5.833279735493932E-011
   6.09187500000000        -5.850059137529514E-011
   6.30562500000000        -5.835870915840760E-011
   6.51937500000000        -5.798228693584934E-011
   6.73312500000000        -5.744209774544476E-011
   6.94687500000000        -5.680892993194897E-011
   7.16062500000000        -5.614710506215747E-011
   7.37437500000000        -5.552260175314007E-011
   7.58812500000000        -5.499462799447939E-011
   7.80187500000000        -5.461831149792256E-011
   8.01562500000000        -5.443598029894006E-011
   8.22937500000000        -5.447517205622502E-011
   8.44312500000000        -5.473840955782935E-011
   8.65687500000000        -5.520086245148448E-011
   8.87062500000000        -5.580726093348655E-011
   9.08437500000000        -5.646970895523273E-011
   9.29812500000000        -5.707687054919864E-011
   9.51187500000000        -5.750262349735827E-011
   9.72562500000000        -5.762015934515631E-011
   9.93937500000000        -5.732069213233332E-011
   10.1531250000000        -5.652693601866907E-011
   10.3668750000000        -5.520656320106943E-011
   10.5806250000000        -5.338071752268703E-011
   10.7943750000000        -5.112747488684176E-011
   11.0081250000000        -4.857096082932205E-011
   11.2218750000000        -4.587285449770058E-011
   11.4356250000000        -4.321192717260842E-011
   11.6493750000000        -4.076684331953818E-011
   11.8631250000000        -3.869198506550532E-011
   12.0768750000000        -3.710768663657505E-011
   12.2906250000000        -3.608500542054308E-011
   12.5043750000000        -3.564537713289364E-011
   12.7181250000000        -3.576339628046008E-011
   12.9318750000000        -3.637657325430933E-011
   13.1456250000000        -3.739790304882432E-011
   13.3593750000000        -3.873026215065009E-011
   13.5731250000000        -4.027708144134676E-011
   13.7868750000000        -4.195379587733426E-011
   14.0006250000000        -4.368908785307390E-011
   14.2143750000000        -4.542748178726723E-011
   14.4281250000000        -4.712407787643470E-011
   14.6418750000000        -4.874049217398039E-011
   14.8556250000000        -5.023968543451963E-011
   15.0693750000000        -5.158554191681833E-011
   15.2831250000000        -5.274393823201424E-011
   15.4968750000000        -5.368774364308052E-011
   15.7106250000000        -5.440922206956829E-011
   15.9243750000000        -5.492533311984787E-011
   16.1381250000000        -5.529062501458272E-011
   16.3518750000000        -5.560193522356048E-011
   16.5656250000000        -5.599658137302022E-011
   16.7793750000000        -5.664399782939218E-011
   16.9931250000000        -5.772919922693199E-011
   17.2068750000000        -5.943165599696858E-011
   17.4206250000000        -6.190042474139288E-011
   17.6343750000000        -6.522794006819227E-011
   17.8481250000000        -6.942735776273849E-011
   18.0618750000000        -7.442211417624671E-011
   18.2756250000000        -8.004216690869483E-011
   18.4893750000000        -8.603281411269989E-011
   18.7031250000000        -9.207582179621510E-011
   18.9168750000000        -9.782245665113461E-011
   19.1306250000000        -1.029277313875394E-010
   19.3443750000000        -1.070896166009045E-010
   19.5581250000000        -1.100864960543499E-010
   19.7718750000000        -1.117991277727207E-010
   19.9856250000000        -1.122305362823690E-010
   20.1993750000000        -1.115024598174071E-010
   20.4131250000000        -1.098453788492326E-010
   20.6268750000000        -1.075701059147840E-010
   20.8406250000000        -1.050357747579782E-010
   21.0543750000000        -1.026070095701294E-010
   21.2681250000000        -1.006175375853510E-010
   21.4818750000000        -9.933824395847265E-011
   21.6956250000000        -9.895076947577129E-011
   21.9093750000000        -9.953926233920513E-011
   22.1231250000000        -1.010891141909328E-010
   22.3368750000000        -1.035036015794593E-010
   22.5506250000000        -1.066215753412181E-010
   22.7643750000000        -1.102488791791962E-010
   22.9781250000000        -1.141824855736238E-010
   23.1918750000000        -1.182340674269768E-010
   23.4056250000000        -1.222506145643962E-010
   23.6193750000000        -1.261191262468614E-010
   23.8331250000000        -1.297663889752785E-010
   24.0468750000000        -1.331530529885502E-010
   24.2606250000000        -1.362592855822189E-010
   24.4743750000000        -1.390705372785986E-010
   24.6881250000000        -1.415684400768216E-010
   24.9018750000000        -1.437186883075664E-010
   25.1156250000000        -1.454756998237400E-010
   25.3293750000000        -1.467867082807221E-010
   25.5431250000000        -1.476037048690760E-010
   25.7568750000000        -1.478988803346033E-010
   25.9706250000000        -1.476821437591549E-010
   26.1843750000000        -1.470079962422706E-010
   26.3981250000000        -1.459882909458846E-010
   26.6118750000000        -1.447851254925339E-010
   26.8256250000000        -1.436023919958376E-010
   27.0393750000000        -1.426670242694383E-010
   27.2531250000000        -1.422084601009932E-010
   27.4668750000000        -1.424288986462499E-010
   27.6806250000000        -1.434829747107784E-010
   27.8943750000000        -1.454571447890488E-010
   28.1081250000000        -1.483577594643162E-010
   28.3218750000000        -1.521064426514448E-010
   28.5356250000000        -1.565478721730350E-010
   28.7493750000000        -1.614603626560453E-010
   28.9631250000000        -1.665780487814962E-010
   29.1768750000000        -1.716162615830104E-010
   29.3906250000000        -1.762940676688165E-010
   29.6043750000000        -1.803623307516391E-010
   29.8181250000000        -1.836254877387724E-010
   30.0318750000000        -1.859554550676547E-010
   30.2456250000000        -1.873046143944971E-010
   30.4593750000000        -1.877099915396287E-010
   30.6731250000000        -1.872847774294034E-010
   30.8868750000000        -1.862132896298909E-010
   31.1006250000000        -1.847262521411939E-010
   31.3143750000000        -1.830820548335103E-010
   31.5281250000000        -1.815398894566020E-010
   31.7418750000000        -1.803322007921880E-010
   31.9556250000000        -1.796401672954442E-010
   32.1693750000000        -1.795776026801996E-010
   32.3831250000000        -1.801780671659870E-010
   32.5968750000000        -1.813963540807367E-010
   32.8106250000000        -1.831200212542810E-010
   33.0243750000000        -1.851887602436214E-010
   33.2381250000000        -1.874236159892640E-010
   33.4518750000000        -1.896580045545816E-010
   33.6656250000000        -1.917672215632037E-010
   33.8793750000000        -1.936919961100815E-010
   34.0931250000000        -1.954482774274816E-010
   34.3068750000000        -1.971303863585759E-010
   34.5206250000000        -1.988907166025126E-010
   34.7343750000000        -2.009175118704220E-010
   34.9481250000000        -2.033991052899932E-010
   35.1618750000000        -2.064914816752650E-010
   35.3756250000000        -2.102866325796423E-010
   35.5893750000000        -2.147990986881320E-010
   35.8031250000000        -2.199593601321941E-010
   36.0168750000000        -2.256304868659816E-010
   36.2306250000000        -2.316306166192504E-010
   36.4443750000000        -2.377717694275921E-010
   36.6581250000000        -2.438920726829859E-010
   36.8718750000000        -2.498874443037986E-010
   37.0856250000000        -2.557267481215034E-010
   37.2993750000000        -2.614494053666639E-010
   37.5131250000000        -2.671507233386621E-010
   37.7268750000000        -2.729441955133214E-010
   37.9406250000000        -2.789233363385381E-010
   38.1543750000000        -2.851244968881027E-010
   38.3681250000000        -2.914944249891630E-010
   38.5818750000000        -2.978859274356231E-010
   38.7956250000000        -3.040633687115446E-010
   39.0093750000000        -3.097427895888267E-010
   39.2231250000000        -3.146394748516453E-010
   39.4368750000000        -3.185260604181054E-010
   39.6506250000000        -3.212897499118654E-010
   39.8643750000000        -3.229606839375396E-010
   40.0781250000000        -3.237297833439972E-010
   40.2918750000000        -3.239226562078137E-010
   40.5056250000000        -3.239516497842894E-010
   40.7193750000000        -3.242428531316706E-010
   40.9331250000000        -3.251542880663082E-010
   41.1468750000000        -3.269082144594025E-010
   41.3606250000000        -3.295349859747805E-010
   41.5743750000000        -3.328692564543932E-010
   41.7881250000000        -3.365753428237536E-010
   42.0018750000000        -3.402208699921103E-010
   42.2156250000000        -3.433781968971628E-010
   42.4293750000000        -3.457359196171018E-010
   42.6431250000000        -3.471994045559628E-010
   42.8568750000000        -3.479515933617821E-010
   43.0706250000000        -3.484653368675480E-010
   43.2843750000000        -3.494439249485868E-010
   43.4981250000000        -3.517015725057775E-010
   43.7118750000000        -3.559910533993248E-010
   43.9256250000000        -3.628139458442462E-010
   44.1393750000000        -3.722336584050889E-010
   44.3531250000000        -3.837490743150959E-010
   44.5668750000000        -3.962448086766516E-010
   44.7806250000000        -4.080536014300042E-010
   44.9943750000000        -4.171370880979391E-010
   45.2081250000000        -4.213708104880093E-010
   45.4218750000000        -4.189062348687945E-010
   45.6356250000000        -4.085562780730952E-010
   45.8493750000000        -3.901463785074561E-010
   46.0631250000000        -3.647632322470672E-010
   46.2768750000000        -3.348455379319394E-010
   46.4906250000000        -3.040712185928612E-010
   46.7043750000000        -2.770253725831296E-010
   46.9181250000000        -2.586687353813627E-010
   47.1318750000000        -2.536469519323608E-010
   47.3456250000000        -2.655273577441304E-010
   47.5593750000000        -2.960661311068540E-010
   47.7731250000000        -3.446146873595865E-010
   47.9868750000000        -4.077885209302239E-010
   48.2006250000000        -4.794763407661011E-010
   48.4143750000000        -5.512568827745137E-010
   48.6281250000000        -6.132186845174962E-010
   48.8418750000000        -6.551379593311284E-010
   49.0556250000000        -6.678995586907013E-010
   49.2693750000000        -6.449971689338483E-010
   49.4831250000000        -5.839171840600444E-010
   49.6968750000000        -4.871785928422090E-010
   49.9106250000000        -3.628514947532495E-010
   50.1243750000000        -2.243601822356142E-010
   50.3381250000000        -8.951685638906503E-011
   50.5518750000000         2.122694247488588E-011
   50.7656250000000         8.718939341454652E-011
   50.9793750000000         9.029331766576787E-011
   51.1931250000000         1.801533867136826E-011
   51.4068750000000        -1.339489993907954E-010
   51.6206250000000        -3.597145336320236E-010
   51.8343750000000        -6.423113750546637E-010
   52.0481250000000        -9.541656811358511E-010
   52.2618750000000        -1.259110087316907E-009
   52.4756250000000        -1.515886089555331E-009
   52.6893750000000        -1.682908232615110E-009
   52.9031250000000        -1.723834509592131E-009
   53.1168750000000        -1.613308017158210E-009
   53.3306250000000        -1.342129243420953E-009
   53.5443750000000        -9.210570644803643E-010
   53.7581250000000        -3.825237927815151E-010
   53.9718750000000         2.202968005172310E-010
   54.1856250000000         8.173441910688693E-010
   54.3993750000000         1.328371433032152E-009
   54.6131250000000         1.672028365592857E-009
   54.8268750000000         1.776463111064421E-009
   55.0406250000000         1.590260925005415E-009
   55.2543750000000         1.092305639910774E-009
   55.4681250000000         2.990990634934231E-010
   55.6818750000000        -7.318020424668524E-010
   55.8956250000000        -1.903250604690192E-009
   56.1093750000000        -3.085382737461016E-009
   56.3231250000000        -4.127772216245128E-009
   56.5368750000000        -4.876007522366528E-009
   56.7506250000000        -5.191159184124891E-009
   56.9643750000000        -4.969970040732486E-009
   57.1781250000000        -4.163270481003576E-009
   57.3918750000000        -2.789942927374451E-009
   57.6056250000000        -9.440456568096777E-010
   57.8193750000000         1.206767174537293E-009
   58.0331250000000         3.432499518241748E-009
   58.2468750000000         5.461578525380268E-009
   58.4606250000000         7.009735335504754E-009
   58.6743750000000         7.814371428561454E-009
   58.8881250000000         7.670742977494223E-009
   59.1018750000000         6.465594086889923E-009
   59.3156250000000         4.203640193485157E-009
   59.5293750000000         1.022634715388386E-009
   59.7431250000000        -2.806341005766060E-009
   59.9568750000000        -6.895258307231123E-009
   60.1706250000000        -1.077223802616040E-008
   60.3843750000000        -1.392929925522853E-008
   60.5981250000000        -1.588062454151248E-008
   60.8118750000000        -1.622538748690220E-008
   61.0256250000000        -1.470790834241386E-008
   61.2393750000000        -1.126739851470021E-008
   61.4531250000000        -6.069900484773885E-009
   61.6668750000000         4.835946400688653E-010
   61.8806250000000         7.776682291415876E-009
   62.0943750000000         1.502557820214020E-008
   62.3081250000000         2.135313444124442E-008
   62.5218750000000         2.588287710796212E-008
   62.7356250000000         2.784400577917141E-008
   62.9493750000000         2.667597415171153E-008
   63.1631250000000         2.212008266496254E-008
   63.3768750000000         1.428569303389110E-008
   63.5906250000000         3.680410100528280E-009
   63.8043750000000        -8.803294858509985E-009
   64.0181250000000        -2.194812899425731E-008
   64.2318750000000        -3.431663287375018E-008
   64.4456250000000        -4.439287888819633E-008
   64.6593750000000        -5.074856358888186E-008
   64.8731250000000        -5.221669532112258E-008
   65.0868750000000        -4.805353974719140E-008
   65.3006250000000        -3.806896609135274E-008
   65.5143750000000        -2.270709863008874E-008
   65.7281250000000        -3.063166178531468E-009
   65.9418750000000         1.917149070952053E-008
   66.1556250000000         4.183685313655287E-008
   66.3693750000000         6.249645369180395E-008
   66.5831250000000         7.867872799276256E-008
   66.7968750000000         8.814491060058669E-008
   67.0106250000000         8.915595806797289E-008
   67.2243750000000         8.070882330958319E-008
   67.4381250000000         6.271342414802501E-008
   67.6518750000000         3.608594489726636E-008
   67.8656250000000         2.741552829306177E-009
   68.0793750000000        -3.452063338757202E-008
   68.2931250000000        -7.223609998426729E-008
   68.5068750000000        -1.065812534074912E-007
   68.7206250000000        -1.337410649471852E-007
   68.9343750000000        -1.503032680189981E-007
   69.1481250000000        -1.536392595238211E-007
   69.3618750000000        -1.422308918903357E-007
   69.5756250000000        -1.159057266326897E-007
   69.7893750000000        -7.595096286627827E-008
   70.0031250000000        -2.508746764107796E-008
   70.2168750000000         3.270097361251552E-008
   70.4306250000000         9.247327800844317E-008
   70.6443750000000         1.487473713968852E-007
   70.8581250000000         1.959907826823609E-007
   71.0718750000000         2.291403812856906E-007
   71.2856250000000         2.441018324222565E-007
   71.4993750000000         2.381800752607600E-007
   71.7131250000000         2.103978475453616E-007
   71.9268750000000         1.616694184418606E-007
   72.1406250000000         9.481010656182136E-008
   72.3543750000000         1.437752313942831E-008
   72.5681250000000        -7.364397223661405E-008
   72.7818750000000        -1.622898877703134E-007
   72.9956250000000        -2.441561788763323E-007
   73.2093750000000        -3.119891035101230E-007
   73.4231250000000        -3.592764906427052E-007
   73.6368750000000        -3.807937973594620E-007
   73.8506250000000        -3.730634877298788E-007
   74.0643750000000        -3.346944662522468E-007
   74.2781250000000        -2.665783528583802E-007
   74.4918750000000        -1.719301196907622E-007
   74.7056250000000        -5.617085848266035E-008
   74.9193750000000         7.334050990892081E-008
   75.1331250000000         2.077125311728995E-007
   75.3468750000000         3.370438209239524E-007
   75.5606250000000         4.510390887680485E-007
   75.7743750000000         5.396912345748686E-007
   75.9881250000000         5.939987449610324E-007
   76.2018750000000         6.066838321300351E-007
   76.4156250000000         5.728722483469161E-007
   76.6293750000000         4.906908611237433E-007
   76.8431250000000         3.617346483932255E-007
   77.0568750000000         1.913520005194216E-007
   77.2706250000000        -1.130214555834670E-008
   77.4843750000000        -2.334903152282681E-007
   77.6981250000000        -4.594266469507340E-007
   77.9118750000000        -6.711350878418171E-007
   78.1256250000000        -8.496193382056290E-007
   78.3393750000000        -9.763003706194502E-007
   78.5531250000000        -1.034642071365365E-006
   78.7668750000000        -1.011850728092348E-006
   78.9806250000000        -9.005039148527425E-007
   79.1943750000000        -6.999437341959817E-007
   79.4081250000000        -4.172627114677402E-007
   79.6218750000000        -6.772165009714435E-008
   79.8356250000000         3.255307901114901E-007
   80.0493750000000         7.325170161954614E-007
   80.2631250000000         1.118281236097815E-006
   80.4768750000000         1.445466378125082E-006
   80.6906250000000         1.677467768214487E-006
   80.9043750000000         1.781934156592538E-006
   81.1181250000000         1.734319969697241E-006
   81.3318750000000         1.521148303772609E-006
   81.5456250000000         1.142629814385850E-006
   81.7593750000000         6.143034877270650E-007
   81.9731250000000        -3.257697218513199E-008
   82.1868750000000        -7.520948031441462E-007
   82.4006250000000        -1.486222244898003E-006
   82.6143750000000        -2.168795132216477E-006
   82.8281250000000        -2.730685835860200E-006
   83.0418750000000        -3.105812177997461E-006
   83.2556250000000        -3.237504894286301E-006
   83.4693750000000        -3.084677446312541E-006
   83.6831250000000        -2.627210333718741E-006
   83.8968750000000        -1.869983983829447E-006
   84.1106250000000        -8.450713789248277E-007
   84.3243750000000         3.882699223465052E-007
   84.5381250000000         1.745995919170916E-006
   84.7518750000000         3.124054420752526E-006
   84.9656250000000         4.405321933496558E-006
   85.1793750000000         5.468273141404724E-006
   85.3931250000000         6.196777972922482E-006
   85.6068750000000         6.490284989150880E-006
   85.8206250000000         6.273569961821642E-006
   86.0343750000000         5.505214138361200E-006
   86.2481250000000         4.184031415396806E-006
   86.4618750000000         2.352785294386512E-006
   86.6756250000000         9.871720385671310E-008
   86.8893750000000        -2.449365291536341E-006
   87.1031250000000        -5.127435408628769E-006
   87.3168750000000        -7.745757454826550E-006
   87.5306250000000        -1.010103214015721E-005
   87.7443750000000        -1.199042169156230E-005
   87.9581250000000        -1.322652039870966E-005
   88.1718750000000        -1.365221948303895E-005
   88.3856250000000        -1.315437114090098E-005
   88.5993750000000        -1.167519091640916E-005
   88.8131250000000        -9.220450254566944E-006
   89.0268750000000        -5.863697110349095E-006
   89.2406250000000        -1.745991170322824E-006
   89.4543750000000         2.929063342221752E-006
   89.6681250000000         7.904879490514268E-006
   89.8818750000000         1.288560483531387E-005
   90.0956250000000         1.755324051782572E-005
   90.3093750000000         2.158713502393432E-005
   90.5231250000000         2.468461464374274E-005
   90.7368750000000         2.658138335512152E-005
   90.9506250000000         2.707029074735620E-005
   91.1643750000000         2.601713498760379E-005
   91.3781250000000         2.337233788618051E-005
   91.5918750000000         1.917759234798573E-005
   91.8056250000000         1.356692142307221E-005
   92.0193750000000         6.761978626514906E-006
   92.2331250000000        -9.381693773515237E-007
   92.4468750000000        -9.172137784765747E-006
   92.6606250000000        -1.753520427056249E-005
   92.8743750000000        -2.560090909611059E-005
   93.0881250000000        -3.294383770340061E-005
   93.3018750000000        -3.916209726729508E-005
   93.5156250000000        -4.389807158342329E-005
   93.7293750000000        -4.685622852398261E-005
   93.9431250000000        -4.781704207409024E-005
   94.1568750000000        -4.664644658040064E-005
   94.3706250000000        -4.330062719345862E-005
   94.5843750000000        -3.782632639307512E-005
   94.7981250000000        -3.035717194012627E-005
   95.0118750000000        -2.110677224551933E-005
   95.2256250000000        -1.035945641990850E-005
   95.4393750000000         1.540452797721019E-006
   95.6531250000000         1.420005076163702E-005
   95.8668750000000         2.718936789138625E-005
   96.0806250000000         4.005268068823880E-005
   96.2943750000000         5.231959674724596E-005
   96.5081250000000         6.351616110340650E-005
   96.7218750000000         7.317642944063669E-005
   96.9356250000000         8.085504442719029E-005
   97.1493750000000         8.614130942176130E-005
   97.3631250000000         8.867507063725627E-005
   97.5768750000000         8.816440533330528E-005
   97.7906250000000         8.440469991030696E-005
   98.0043750000000         7.729823478199100E-005
   98.2181250000000         6.687293174373571E-005
   98.4318750000000         5.329852901889880E-005
   98.6456250000000         3.689819260620328E-005
   98.8593750000000         1.815350338324234E-005
   99.0731250000000        -2.299084951214126E-006
   99.2868750000000        -2.368182674276648E-005
   99.5006250000000        -4.510018920989250E-005
   99.7143750000000        -6.557834934697230E-005
   99.9281250000000        -8.410480219395839E-005
   100.141875000000        -9.968619921199836E-005
   100.355625000000        -1.114065755765935E-004
   100.569375000000        -1.184883018711827E-004
   100.783125000000        -1.203504994642986E-004
   100.996875000000        -1.166603657072521E-004
   101.210625000000        -1.073729184893586E-004
   101.424375000000        -9.275511464997032E-005
   101.638125000000        -7.339111639913926E-005
   101.851875000000        -5.016663443894748E-005
   102.065625000000        -2.423169536615376E-005
   102.279375000000         3.057232321275602E-006
   102.493125000000         3.021318084405573E-005
   102.706875000000         5.570855799814879E-005
   102.920625000000         7.807345720055596E-005
   103.134375000000         9.599586762120901E-005
   103.348125000000         1.084166355463012E-004
   103.561875000000         1.146119143596526E-004
   103.775625000000         1.142562692548249E-004
   103.989375000000         1.074605787296674E-004
   104.203125000000         9.478036216275794E-005
   104.416875000000         7.719208521322104E-005
   104.630625000000         5.603723828511104E-005
   104.844375000000         3.293640182521509E-005
   105.058125000000         9.677935230236996E-006
   105.271875000000        -1.191183013385329E-005
   105.485625000000        -3.010813406283922E-005
   105.699375000000        -4.342696456572390E-005
   105.913125000000        -5.075310617049975E-005
   106.126875000000        -5.144642302160073E-005
   106.340625000000        -4.541670474396918E-005
   106.554375000000        -3.315919548188052E-005
   106.768125000000        -1.574546962992962E-005
   106.981875000000         5.232532666305249E-006
   107.195625000000         2.776394674565104E-005
   107.409375000000         4.956084178515160E-005
   107.623125000000         6.823188274122742E-005
   107.836875000000         8.147606954198966E-005
   108.050625000000         8.728244075851459E-005
   108.264375000000         8.412021517430028E-005
   108.478125000000         7.110358595787119E-005
   108.691875000000         4.811637718503718E-005
   108.905625000000         1.588402091227926E-005
   109.119375000000        -2.401629079845793E-005
   109.333125000000        -6.921208945008227E-005
   109.546875000000        -1.166585862842187E-004
   109.760625000000        -1.628226967850786E-004
   109.974375000000        -2.039176335168413E-004
   110.188125000000        -2.361730385993807E-004
   110.401875000000        -2.561220600414218E-004
   110.615625000000        -2.608845021786273E-004
   110.829375000000        -2.484244379568427E-004
   111.043125000000        -2.177615807643264E-004
   111.256875000000        -1.691182654809627E-004
   111.470625000000        -1.039879377911350E-004
   111.684375000000        -2.511632728055286E-005
   111.898125000000         6.360739270545561E-005
   112.111875000000         1.573456296595900E-004
   112.325625000000         2.505833213807992E-004
   112.539375000000         3.374587088508626E-004
   112.753125000000         4.121330328481671E-004
   112.966875000000         4.691748789405321E-004
   113.180625000000         5.039332146190824E-004
   113.394375000000         5.128733210209671E-004
   113.608125000000         4.938518257966570E-004
   113.821875000000         4.463107607460220E-004
   114.035625000000         3.713757384287802E-004
   114.249375000000         2.718496001589042E-004
   114.463125000000         1.520997907666551E-004
   114.676875000000         1.784477669747303E-005
   114.890625000000        -1.241484499646193E-004
   115.104375000000        -2.664378123432833E-004
   115.318125000000        -4.013278405867824E-004
   115.531875000000        -5.213137110444880E-004
   115.745625000000        -6.195202379254077E-004
   115.959375000000        -6.901087319278504E-004
   116.173125000000        -7.286267080629449E-004
   116.386875000000        -7.322790901513834E-004
   116.600625000000        -7.001045567631883E-004
   116.814375000000        -6.330466530359334E-004
   117.028125000000        -5.339158470837907E-004
   117.241875000000        -4.072454015603779E-004
   117.455625000000        -2.590503249216793E-004
   117.669375000000        -9.650435801467134E-005
   117.883125000000         7.244540743318111E-005
   118.096875000000         2.395033591510295E-004
   118.310625000000         3.964648923448804E-004
   118.524375000000         5.356456118883246E-004
   118.738125000000         6.502764355489055E-004
   118.951875000000         7.348434627795506E-004
   119.165625000000         7.853552772845700E-004
   119.379375000000         7.995250336864753E-004
   119.593125000000         7.768599080521980E-004
   119.806875000000         7.186559196234365E-004
   120.020625000000         6.279014152667732E-004
   120.234375000000         5.090973379087172E-004
   120.448125000000         3.680065152813873E-004
   120.661875000000         2.113474101349420E-004
   120.875625000000         4.644994514999831E-005
   121.089375000000        -1.191078923035996E-004
   121.303125000000        -2.778639257308382E-004
   121.516875000000        -4.228183435350318E-004
   121.730625000000        -5.477469077174366E-004
   121.944375000000        -6.474672458156071E-004
   122.158125000000        -7.180475978969419E-004
   122.371875000000        -7.569506378912979E-004
   122.585625000000        -7.631083619824472E-004
   122.799375000000        -7.369273752543567E-004
   123.013125000000        -6.802270725055398E-004
   123.226875000000        -5.961160856686411E-004
   123.440625000000        -4.888148678103116E-004
   123.654375000000        -3.634343327977094E-004
   123.868125000000        -2.257220195612666E-004