  -1.60312500000000         7.553415187022483E-021
  -1.38937500000000         2.589383155644154E-018
  -1.17562500000000         2.656537671811739E-017
 -0.961875000000000         1.644101625684734E-016
 -0.748125000000000         7.815577167871013E-016
 -0.534375000000000         3.088666219814940E-015
 -0.320625000000000         1.052039570095319E-014
 -0.106875000000000         3.154517196047658E-014
  0.106875000000000         8.453919816249851E-014
  0.320625000000000         2.050532987331437E-013
  0.534375000000000         4.551310174474614E-013
  0.748125000000000         9.334766090387446E-013
  0.961875000000000         1.784521374743429E-012
   1.17562500000000         3.204052848491852E-012
   1.38937500000000         5.439020460100770E-012
   1.60312500000000         8.780177007961445E-012
   1.81687500000000         1.354711086040337E-011
   2.03062500000000         2.006584601291988E-011
   2.24437500000000         2.864152331926195E-011
   2.45812500000000         3.952867416182943E-011
   2.67187500000000         5.290212721902954E-011
   2.88562500000000         6.883305204141289E-011
   3.09937500000000         8.727322172291604E-011
   3.31312500000000         1.080497521573252E-010
   3.52687500000000         1.308719054968034E-010
   3.74062500000000         1.553506339403970E-010
   3.95437500000000         1.810273680990505E-010
   4.16812500000000         2.074085013767655E-010
   4.38187500000000         2.340037785716641E-010
   4.59562500000000         2.603616695885961E-010
   4.80937500000000         2.860974398943366E-010
   5.02312500000000         3.109113422762763E-010
   5.23687500000000         3.345952199988140E-010
   5.45062500000000         3.570276890382079E-010
   5.66437500000000         3.781593880937942E-010
   5.87812500000000         3.979952786573927E-010
   6.09187500000000         4.165756488401264E-010
   6.30562500000000         4.339613186247476E-010
   6.51937500000000         4.502290746702485E-010
   6.73312500000000         4.654776314697792E-010
   6.94687500000000         4.798417854083614E-010
   7.16062500000000         4.935139002311537E-010
   7.37437500000000         5.067689040637180E-010
   7.58812500000000         5.199832804627298E-010
   7.80187500000000         5.336423873646469E-010
   8.01562500000000         5.483328657078985E-010
   8.22937500000000         5.647171899352040E-010
   8.44312500000000         5.834892004189924E-010
   8.65687500000000         6.053171424263907E-010
   8.87062500000000         6.307803963852672E-010
   9.08437500000000         6.603081969207368E-010
   9.29812500000000         6.941300655277700E-010
   9.51187500000000         7.322463125572584E-010
   9.72562500000000         7.744223580705669E-010
   9.93937500000000         8.202095655556617E-010
   10.1531250000000         8.689900479681865E-010
   10.3668750000000         9.200374158868722E-010
   10.5806250000000         9.725864212570918E-010
   10.7943750000000         1.025899571584155E-009
   11.0081250000000         1.079322278986844E-009
   11.2218750000000         1.132319028786623E-009
   11.4356250000000         1.184486948426180E-009
   11.6493750000000         1.235548889126277E-009
   11.8631250000000         1.285329924746834E-009
   12.0768750000000         1.333724963337946E-009
   12.2906250000000         1.380668119650162E-009
   12.5043750000000         1.426111786038480E-009
   12.7181250000000         1.470021481114055E-009
   12.9318750000000         1.512390392293566E-009
   13.1456250000000         1.553269770050792E-009
   13.3593750000000         1.592808469495924E-009
   13.5731250000000         1.631293885246513E-009
   13.7868750000000         1.669182106985854E-009
   14.0006250000000         1.707107689551654E-009
   14.2143750000000         1.745866516061932E-009
   14.4281250000000         1.786368651081162E-009
   14.6418750000000         1.829566485469636E-009
   14.8556250000000         1.876365523157858E-009
   15.0693750000000         1.927529897122885E-009
   15.2831250000000         1.983597577243585E-009
   15.4968750000000         2.044818750342760E-009
   15.7106250000000         2.111127397009389E-009
   15.9243750000000         2.182151194876265E-009
   16.1381250000000         2.257259128183254E-009
   16.3518750000000         2.335640786351732E-009
   16.5656250000000         2.416404506729952E-009
   16.7793750000000         2.498679483312563E-009
   16.9931250000000         2.581707006476037E-009
   17.2068750000000         2.664906088195175E-009
   17.4206250000000         2.747906763854870E-009
   17.6343750000000         2.830546245366954E-009
   17.8481250000000         2.912830875178820E-009
   18.0618750000000         2.994874650220255E-009
   18.2756250000000         3.076824588340785E-009
   18.4893750000000         3.158790126005777E-009
   18.7031250000000         3.240788271168476E-009
   18.9168750000000         3.322715257049936E-009
   19.1306250000000         3.404349766623373E-009
   19.3443750000000         3.485387314057927E-009
   19.5581250000000         3.565499402042903E-009
   19.7718750000000         3.644405142217390E-009
   19.9856250000000         3.721945134059814E-009
   20.1993750000000         3.798142334519456E-009
   20.4131250000000         3.873239368776238E-009
   20.6268750000000         3.947705906862977E-009
   20.8406250000000         4.022214323811621E-009
   21.0543750000000         4.097585672532244E-009
   21.2681250000000         4.174715207264131E-009
   21.4818750000000         4.254488358103317E-009
   21.6956250000000         4.337698507512198E-009
   21.9093750000000         4.424979018068822E-009
   22.1231250000000         4.516758290679746E-009
   22.3368750000000         4.613242794310893E-009
   22.5506250000000         4.714428156572225E-009
   22.7643750000000         4.820135482814397E-009
   22.9781250000000         4.930065207766139E-009
   23.1918750000000         5.043858336508366E-009
   23.4056250000000         5.161156111777941E-009
   23.6193750000000         5.281648502227317E-009
   23.8331250000000         5.405104348907938E-009
   24.0468750000000         5.531380839229162E-009
   24.2606250000000         5.660412969681412E-009
   24.4743750000000         5.792185861668074E-009
   24.6881250000000         5.926697125675170E-009
   24.9018750000000         6.063917012595894E-009
   25.1156250000000         6.203755473848387E-009
   25.3293750000000         6.346042112228229E-009
   25.5431250000000         6.490524144948219E-009
   25.7568750000000         6.636883749643026E-009
   25.9706250000000         6.784772850165528E-009
   26.1843750000000         6.933861242009855E-009
   26.3981250000000         7.083891210876706E-009
   26.6118750000000         7.234730032752356E-009
   26.8256250000000         7.386410759150332E-009
   27.0393750000000         7.539156929484187E-009
   27.2531250000000         7.693384349490065E-009
   27.4668750000000         7.849678016636533E-009
   27.6806250000000         8.008747082008406E-009
   27.8943750000000         8.171361714693600E-009
   28.1081250000000         8.338280005756294E-009
   28.3218750000000         8.510175180834463E-009
   28.5356250000000         8.687570391549889E-009
   28.7493750000000         8.870789926686426E-009
   28.9631250000000         9.059934521215391E-009
   29.1768750000000         9.254881150181580E-009
   29.3906250000000         9.455306635173754E-009
   29.6043750000000         9.660731779491236E-009
   29.8181250000000         9.870577480196605E-009
   30.0318750000000         1.008422440064917E-008
   30.2456250000000         1.030106806848595E-008
   30.4593750000000         1.052056085201431E-008
   30.6731250000000         1.074223622300356E-008
   30.8868750000000         1.096571372175347E-008
   31.1006250000000         1.119068563827305E-008
   31.3143750000000         1.141689077146475E-008
   31.5281250000000         1.164408212858670E-008
   31.7418750000000         1.187199686354315E-008
   31.9556250000000         1.210033543285639E-008
   32.1693750000000         1.232875631964386E-008
   32.3831250000000         1.255688922241989E-008
   32.5968750000000         1.278436616691021E-008
   32.8106250000000         1.301086624749158E-008
   33.0243750000000         1.323616671668670E-008
   33.2381250000000         1.346019302994571E-008
   33.4518750000000         1.368305799226471E-008
   33.6656250000000         1.390508227885741E-008
   33.8793750000000         1.412679166776121E-008
   34.0931250000000         1.434888859860774E-008
   34.3068750000000         1.457220079315342E-008
   34.5206250000000         1.479761297369761E-008
   34.7343750000000         1.502598966816144E-008
   34.9481250000000         1.525810007667177E-008
   35.1618750000000         1.549455476296418E-008
   35.3756250000000         1.573576266778389E-008
   35.5893750000000         1.598191518696651E-008
   35.8031250000000         1.623299860645080E-008
   36.0168750000000         1.648883269561452E-008
   36.2306250000000         1.674913080841234E-008
   36.4443750000000         1.701357134314122E-008
   36.6581250000000         1.728187001431809E-008
   36.8718750000000         1.755384345373209E-008
   37.0856250000000         1.782945289510543E-008
   37.2993750000000         1.810882179013885E-008
   37.5131250000000         1.839222448695174E-008
   37.7268750000000         1.868004830717404E-008
   37.9406250000000         1.897273332741701E-008
   38.1543750000000         1.927069846318389E-008
   38.3681250000000         1.957426612807664E-008
   38.5818750000000         1.988359768594153E-008
   38.7956250000000         2.019864820255748E-008
   39.0093750000000         2.051914905260989E-008
   39.2231250000000         2.084462446114060E-008
   39.4368750000000         2.117443627145294E-008
   39.6506250000000         2.150785419774432E-008
   39.8643750000000         2.184414264109822E-008
   40.0781250000000         2.218265071869593E-008
   40.2918750000000         2.252289418319245E-008
   40.5056250000000         2.286461777141950E-008
   40.7193750000000         2.320783020187928E-008
   40.9331250000000         2.355280720138169E-008
   41.1468750000000         2.390006416027693E-008
   41.3606250000000         2.425030239838663E-008
   41.5743750000000         2.460433759529688E-008
   41.7881250000000         2.496302218492660E-008
   42.0018750000000         2.532717017565580E-008
   42.2156250000000         2.569749461549664E-008
   42.4293750000000         2.607456285981807E-008
   42.6431250000000         2.645877190855212E-008
   42.8568750000000         2.685034164649794E-008
   43.0706250000000         2.724932078807296E-008
   43.2843750000000         2.765559983412068E-008
   43.4981250000000         2.806892487450274E-008
   43.7118750000000         2.848890981265012E-008
   43.9256250000000         2.891504386268404E-008
   44.1393750000000         2.934670092430234E-008
   44.3531250000000         2.978315565874996E-008
   44.5668750000000         3.022361299741793E-008
   44.7806250000000         3.066725980941738E-008
   44.9943750000000         3.111333883087477E-008
   45.2081250000000         3.156124231106987E-008
   45.4218750000000         3.201061546381438E-008
   45.6356250000000         3.246145140320950E-008
   45.8493750000000         3.291415521507312E-008
   46.0631250000000         3.336955346983062E-008
   46.2768750000000         3.382882894792766E-008
   46.4906250000000         3.429337004992022E-008
   46.7043750000000         3.476453585767694E-008
   46.9181250000000         3.524335573891287E-008
   47.1318750000000         3.573020156425381E-008
   47.3456250000000         3.622448323191935E-008
   47.5593750000000         3.672442857978134E-008
   47.7731250000000         3.722700865444352E-008
   47.9868750000000         3.772806090465856E-008
   48.2006250000000         3.822264054277228E-008
   48.4143750000000         3.870559876599649E-008
   48.6281250000000         3.917235093982780E-008
   48.8418750000000         3.961975590593167E-008
   49.0556250000000         4.004699443534506E-008
   49.2693750000000         4.045630882316525E-008
   49.4831250000000         4.085345920351313E-008
   49.6968750000000         4.124776299505073E-008
   49.9106250000000         4.165162111857599E-008
   50.1243750000000         4.207949306817552E-008
   50.3381250000000         4.254635443310197E-008
   50.5518750000000         4.306575286149328E-008
   50.7656250000000         4.364766196684806E-008
   50.9793750000000         4.429639834227601E-008
   51.1931250000000         4.500890808273854E-008
   51.4068750000000         4.577373464703268E-008
   51.6206250000000         4.657094051718583E-008
   51.8343750000000         4.737317457489440E-008
   52.0481250000000         4.814795005215026E-008
   52.2618750000000         4.886104289517862E-008
   52.4756250000000         4.948075072239085E-008
   52.6893750000000         4.998258701097842E-008
   52.9031250000000         5.035385224640134E-008
   53.1168750000000         5.059744619075393E-008
   53.3306250000000         5.073427181385260E-008
   53.5443750000000         5.080366464639024E-008
   53.7581250000000         5.086145131195206E-008
   53.9718750000000         5.097548646330133E-008
   54.1856250000000         5.121883611799644E-008
   54.3993750000000         5.166111340564455E-008
   54.6131250000000         5.235880079153376E-008
   54.8268750000000         5.334566887862726E-008
   55.0406250000000         5.462456817554524E-008
   55.2543750000000         5.616189775665487E-008
   55.4681250000000         5.788590916289168E-008
   55.6818750000000         5.968968811909272E-008
   55.8956250000000         6.143917850250272E-008
   56.1093750000000         6.298600466541807E-008
   56.3231250000000         6.418418524450324E-008
   56.5368750000000         6.490918722543295E-008
   56.7506250000000         6.507721926510389E-008
   56.9643750000000         6.466231198107822E-008
   57.1781250000000         6.370864924549650E-008
   57.3918750000000         6.233584360093735E-008
   57.6056250000000         6.073541607145041E-008
   57.8193750000000         5.915761472514180E-008
   58.0331250000000         5.788882210446198E-008
   58.2468750000000         5.722103958272210E-008
   58.4606250000000         5.741616986736961E-008
   58.6743750000000         5.866887038257699E-008
   58.8881250000000         6.107246721259594E-008
   59.1018750000000         6.459266254435117E-008
   59.3156250000000         6.905344019641046E-008
   59.5293750000000         7.413864341940830E-008
   59.7431250000000         7.941119524658536E-008
   59.9568750000000         8.434998269930133E-008
   60.1706250000000         8.840221012840077E-008
   60.3843750000000         9.104680174849088E-008
   60.5981250000000         9.186246626498493E-008
   60.8118750000000         9.059262032821950E-008
   61.0256250000000         8.719874739840353E-008
   61.2393750000000         8.189411385677141E-008
   61.4531250000000         7.515115685237171E-008
   61.6668750000000         6.767826459552847E-008
   61.8806250000000         6.036488777058659E-008
   62.0943750000000         5.419766604519056E-008
   62.3081250000000         5.015413799846836E-008
   62.5218750000000         4.908413029053850E-008
   62.7356250000000         5.159165263351266E-008
   62.9493750000000         5.793161598752630E-008
   63.1631250000000         6.793562160776026E-008
   63.3768750000000         8.097926753011271E-008
   63.5906250000000         9.599991291401785E-008
   63.8043750000000         1.115688628231344E-007
   64.0181250000000         1.260159016699421E-007
   64.2318750000000         1.375976449363034E-007
   64.4456250000000         1.446949899651836E-007
   64.6593750000000         1.460198017748853E-007
   64.8731250000000         1.408075915798236E-007
   65.0868750000000         1.289718977580814E-007
   65.3006250000000         1.111977632456336E-007
   65.5143750000000         8.895619225895532E-008
   65.7281250000000         6.442854129691495E-008
   65.9418750000000         4.033892618704348E-008
   66.1556250000000         1.970307966596430E-008
   66.3693750000000         5.512615619884983E-009
   66.5831250000000         3.831918178177367E-010
   66.7968750000000         6.202437689233046E-009
   67.0106250000000         2.381767298254730E-008
   67.2243750000000         5.280361139740714E-008
   67.4381250000000         9.134598141647793E-008
   67.6518750000000         1.362683073690254E-007
   67.8656250000000         1.832164760933348E-007
   68.0793750000000         2.270001118500174E-007
   68.2931250000000         2.620725389757572E-007
   68.5068750000000         2.831139184917321E-007
   68.7206250000000         2.856667792805071E-007
   68.9343750000000         2.667614268018719E-007
   69.1481250000000         2.254622182596306E-007
   69.3618750000000         1.632656180030969E-007
   69.5756250000000         8.428801463084342E-008
   69.7893750000000        -4.804484070761314E-009
   70.0031250000000        -9.515132415668848E-008
   70.2168750000000        -1.763389697214542E-007
   70.4306250000000        -2.373006060985932E-007
   70.6443750000000        -2.674163528957269E-007
   70.8581250000000        -2.577285771793745E-007
   71.0718750000000        -2.021642231904017E-007
   71.2856250000000        -9.864109620375959E-008
   71.4993750000000         5.006993701794079E-008
   71.7131250000000         2.358482241507723E-007
   71.9268750000000         4.451944570173309E-007
   72.1406250000000         6.597409257525145E-007
   72.3543750000000         8.573303519143974E-007
   72.5681250000000         1.013642710454194E-006
   72.7818750000000         1.104294674479593E-006
   72.9956250000000         1.107281119561043E-006
   73.2093750000000         1.005577366616024E-006
   73.4231250000000         7.896796069146419E-007
   73.6368750000000         4.598341205128616E-007
   73.8506250000000         2.769775722611230E-008
   74.0643750000000        -4.828140682367342E-007
   74.2781250000000        -1.035698141920023E-006
   74.4918750000000        -1.584198040987333E-006
   74.7056250000000        -2.073364665264498E-006
   74.9193750000000        -2.443804268714221E-006
   75.1331250000000        -2.636463540428325E-006
   75.3468750000000        -2.598185836210076E-006
   75.5606250000000        -2.287663212561840E-006
   75.7743750000000        -1.681315747735487E-006
   75.9881250000000        -7.785631286511052E-007
   76.2018750000000         3.940767404491815E-007
   76.4156250000000         1.780613324723661E-006
   76.6293750000000         3.295420829664449E-006
   76.8431250000000         4.825659772751122E-006
   77.0568750000000         6.236490578307562E-006
   77.2706250000000         7.379079669481716E-006
   77.4843750000000         8.101159667413289E-006
   77.6981250000000         8.259650454571341E-006
   77.9118750000000         7.734596218987493E-006
   78.1256250000000         6.443446837164193E-006
   78.3393750000000         4.354532781165424E-006
   78.5531250000000         1.498473137394027E-006
   78.7668750000000        -2.023764440570398E-006
   78.9806250000000        -6.037350398900412E-006
   79.1943750000000        -1.029563113592957E-005
   79.4081250000000        -1.448841745036337E-005
   79.6218750000000        -1.825681610379784E-005
   79.8356250000000        -2.121440751441737E-005
   80.0493750000000        -2.297402901905130E-005
   80.2631250000000        -2.317886222851370E-005
   80.4768750000000        -2.153598781910523E-005
   80.6906250000000        -1.785010822549517E-005
   80.9043750000000        -1.205479488548596E-005
   81.1181250000000        -4.238435108442744E-006
   81.3318750000000         5.337930091793922E-006
   81.5456250000000         1.623344738634365E-005
   81.7593750000000         2.783307153684738E-005
   81.9731250000000         3.936736957113089E-005
   82.1868750000000         4.994701951710379E-005
   82.4006250000000         5.861146586597257E-005
   82.6143750000000         6.439005192797621E-005
   82.8281250000000         6.637278942657091E-005
   83.0418750000000         6.378683355873567E-005
   83.2556250000000         5.607379727105380E-005
   83.4693750000000         4.296234979363698E-005
   83.6831250000000         2.453018089371518E-005
   83.8968750000000         1.249437709546260E-006
   84.1106250000000        -2.598980257260591E-005
   84.3243750000000        -5.588255867635333E-005
   84.5381250000000        -8.674167210026940E-005
   84.7518750000000        -1.165617237008842E-004
   84.9656250000000        -1.431136150139693E-004
   85.1793750000000        -1.640670857205356E-004
   85.3931250000000        -1.771361802296835E-004
   85.6068750000000        -1.802405152098200E-004
   85.8206250000000        -1.716732962582756E-004
   86.0343750000000        -1.502655435425937E-004
   86.2481250000000        -1.155350573678799E-004
   86.4618750000000        -6.780840456922289E-005
   86.6756250000000        -8.304719523744053E-006
   86.8893750000000         6.082857056009121E-005
   87.1031250000000         1.365358783592095E-004
   87.3168750000000         2.149343944193811E-004
   87.5306250000000         2.914573357065468E-004
   87.7443750000000         3.610571326307396E-004
   87.9581250000000         4.184620853903507E-004
   88.1718750000000         4.584759531729828E-004
   88.3856250000000         4.763061713074017E-004
   88.5993750000000         4.679031943545205E-004
   88.8131250000000         4.302910951498674E-004
   89.0268750000000         3.618682357566065E-004
   89.2406250000000         2.626567400470338E-004
   89.4543750000000         1.344807464801106E-004
   89.6681250000000        -1.894396812015553E-005
   89.8818750000000        -1.920224864381094E-004
   90.0956250000000        -3.774037910676138E-004
   90.3093750000000        -5.662167772790383E-004
   90.5231250000000        -7.484150713900546E-004
   90.7368750000000        -9.132196617430997E-004
   90.9506250000000        -1.049641710805457E-003
   91.1643750000000        -1.147061899845049E-003
   91.3781250000000        -1.195837683887129E-003
   91.5918750000000        -1.187906284927266E-003
   91.8056250000000        -1.117349436972570E-003
   92.0193750000000        -9.808860338317300E-004
   92.2331250000000        -7.782610207722968E-004
   92.4468750000000        -5.125030866124272E-004
   92.6606250000000        -1.900297916817451E-004
   92.8743750000000         1.794135827334900E-004
   93.0881250000000         5.829863654802922E-004
   93.3018750000000         1.005151438715341E-003
   93.5156250000000         1.428226665031796E-003
   93.7293750000000         1.833065619197256E-003
   93.9431250000000         2.199836489230499E-003
   94.1568750000000         2.508861686028558E-003
   94.3706250000000         2.741476450681624E-003
   94.5843750000000         2.880862895088509E-003
   94.7981250000000         2.912816625713912E-003
   95.0118750000000         2.826406387505496E-003
   95.2256250000000         2.614492859352011E-003
   95.4393750000000         2.274080504668293E-003
   95.6531250000000         1.806485756911308E-003
   95.8668750000000         1.217315211673660E-003
   96.0806250000000         5.162582404382970E-004
   96.2943750000000        -2.832911587678551E-004
   96.5081250000000        -1.164759079233913E-003
   96.7218750000000        -2.109031051640774E-003
   96.9356250000000        -3.095168470560344E-003
   97.1493750000000        -4.101161444198562E-003
   97.3631250000000        -5.104676987960997E-003
   97.5768750000000        -6.083763750975663E-003
   97.7906250000000        -7.017479241130312E-003
   98.0043750000000        -7.886412440967076E-003
   98.2181250000000        -8.673083276403228E-003
   98.4318750000000        -9.362209990433124E-003
   98.6456250000000        -9.940845391198756E-003
   98.8593750000000        -1.039839247215340E-002
   99.0731250000000        -1.072651835342886E-002
   99.2868750000000        -1.091899225637847E-002
   99.5006250000000        -1.097147780580405E-002
   99.7143750000000        -1.088131201963229E-002
   99.9281250000000        -1.064730273597564E-002
   100.141875000000        -1.026957297607109E-002
   100.355625000000        -9.749475072340131E-003
   100.569375000000        -9.089589703919460E-003
   100.783125000000        -8.293815828162696E-003
   100.996875000000        -7.367547540889324E-003
   101.210625000000        -6.317923876238423E-003
   101.424375000000        -5.154128226122474E-003
   101.638125000000        -3.887706147831957E-003
   101.851875000000        -2.532864486337312E-003
   102.065625000000        -1.106711492170423E-003
   102.279375000000         3.706026673472612E-004
   102.493125000000         1.875882748923857E-003
   102.706875000000         3.383054402878880E-003
   102.920625000000         4.863522205686618E-003
   103.134375000000         6.286731412776407E-003
   103.348125000000         7.620931997592875E-003
   103.561875000000         8.834129405293661E-003
   103.775625000000         9.895192139392399E-003
   103.989375000000         1.077507274677247E-002
   104.203125000000         1.144808690110539E-002
   104.416875000000         1.189318598047632E-002
   104.630625000000         1.209515255276072E-002
   104.844375000000         1.204564611801879E-002
   105.058125000000         1.174402869741584E-002
   105.271875000000         1.119790654565440E-002
   105.485625000000         1.042333527605452E-002
   105.699375000000         9.444650629473188E-003
   105.913125000000         8.293905332221763E-003
   106.126875000000         7.009913078414764E-003
   106.340625000000         5.636922546574548E-003
   106.554375000000         4.222966285678676E-003
   106.768125000000         2.817949975616979E-003
   106.981875000000         1.471565677056629E-003
   107.195625000000         2.311270147626394E-004
   107.409375000000        -8.605662719497271E-004
   107.623125000000        -1.767223148777527E-003
   107.836875000000        -2.460806564033118E-003
   108.050625000000        -2.922928972867631E-003
   108.264375000000        -3.145812737385616E-003
   108.478125000000        -3.132750417515571E-003
   108.691875000000        -2.898024935149408E-003
   108.905625000000        -2.466277855886296E-003
   109.119375000000        -1.871344041832493E-003
   109.333125000000        -1.154600965708718E-003
   109.546875000000        -3.629092501711429E-004
   109.760625000000         4.537542440778580E-004
   109.974375000000         1.244849809780365E-003
   110.188125000000         1.961880592674666E-003
   110.401875000000         2.560910655983237E-003
   110.615625000000         3.004857672711828E-003
   110.829375000000         3.265432761423086E-003
   111.043125000000         3.324617851487523E-003
   111.256875000000         3.175595538078480E-003
   111.470625000000         2.823076314204292E-003
   111.684375000000         2.283001635427181E-003
   111.898125000000         1.581636513886330E-003
   112.111875000000         7.541001481254468E-004
   112.325625000000        -1.575846312122832E-004
   112.539375000000        -1.106814553753920E-003
   112.753125000000        -2.044971644349378E-003
   112.966875000000        -2.924087407039530E-003
   113.180625000000        -3.699455790233631E-003
   113.394375000000        -4.332048467522874E-003
   113.608125000000        -4.790597756645170E-003
   113.821875000000        -5.053232151702084E-003
   114.035625000000        -5.108575756171195E-003
   114.249375000000        -4.956254267495026E-003
   114.463125000000        -4.606784669216232E-003
   114.676875000000        -4.080861348235442E-003
   114.890625000000        -3.408085843415349E-003
   115.104375000000        -2.625218807888667E-003
   115.318125000000        -1.774059206842420E-003
   115.531875000000        -8.990757756063758E-004
   115.745625000000        -4.492824076335314E-005
   115.959375000000         7.459798598784619E-004
   116.173125000000         1.435778857289293E-003
   116.386875000000         1.993115062936061E-003
   116.600625000000         2.394730147110882E-003
   116.814375000000         2.626555366891260E-003
   117.028125000000         2.684267280129608E-003
   117.241875000000         2.573283185243629E-003
   117.455625000000         2.308206817321529E-003
   117.669375000000         1.911765949603748E-003
   117.883125000000         1.413311745580298E-003
   118.096875000000         8.469734361217556E-004
   118.310625000000         2.495799002257717E-004
   118.524375000000        -3.415289020431114E-004
   118.738125000000        -8.906734794631412E-004
   118.951875000000        -1.365865225890360E-003
   119.165625000000        -1.740581606666891E-003
   119.379375000000        -1.995188339499136E-003
   119.593125000000        -2.117932408104866E-003
   119.806875000000        -2.105455373788684E-003
   120.020625000000        -1.962804607961903E-003
   120.234375000000        -1.702949156420213E-003
   120.448125000000        -1.345835330123783E-003
   120.661875000000        -9.170432178637764E-004
   120.875625000000        -4.461276919548038E-004
   121.089375000000         3.525509891227918E-005
   121.303125000000         4.953232344941136E-004
   121.516875000000         9.041290112490863E-004
   121.730625000000         1.235387679633248E-003
   121.944375000000         1.468067633851967E-003
   122.158125000000         1.587649359121367E-003
   122.371875000000         1.586980364740207E-003
   122.585625000000         1.466677429994611E-003
   122.799375000000         1.235054375735897E-003
   123.013125000000         9.075816930739724E-004
   123.226875000000         5.059120787647139E-004
   123.440625000000         5.653162551158088E-005
   123.654375000000        -4.108814161016836E-004
   123.868125000000        -8.652910617886549E-004