  -1.60312500000000         9.351546765686791E-024
  -1.38937500000000         2.123234662232082E-023
  -1.17562500000000         3.888595657857056E-022
 -0.961875000000000         3.307256142442259E-021
 -0.748125000000000         1.892175235992995E-020
 -0.534375000000000         8.556844502564877E-020
 -0.320625000000000         3.252433966183391E-019
 -0.106875000000000         1.072327890871541E-018
  0.106875000000000         3.126472029594674E-018
  0.320625000000000         8.202227865436743E-018
  0.534375000000000         1.963906694988088E-017
  0.748125000000000         4.351127691061763E-017
  0.961875000000000         9.020260241150703E-017
   1.17562500000000         1.765729132539671E-016
   1.38937500000000         3.288060022894518E-016
   1.60312500000000         5.855273552572788E-016
   1.81687500000000         1.001052161641214E-015
   2.03062500000000         1.648027488273342E-015
   2.24437500000000         2.618382455167514E-015
   2.45812500000000         4.021931012546185E-015
   2.67187500000000         5.981765350153108E-015
   2.88562500000000         8.625705623662472E-015
   3.09937500000000         1.207440412707443E-014
   3.31312500000000         1.642649212496429E-014
   3.52687500000000         2.174262867355241E-014
   3.74062500000000         2.803047507468035E-014
   3.95437500000000         3.523222835894904E-014
   4.16812500000000         4.321740120308449E-014
   4.38187500000000         5.178354009422140E-014
   4.59562500000000         6.066458965142913E-014
   4.80937500000000         6.954871186762517E-014
   5.02312500000000         7.810400555037832E-014
   5.23687500000000         8.601047813429416E-014
   5.45062500000000         9.299359372489412E-014
   5.66437500000000         9.885766211210711E-014
   5.87812500000000         1.035133983078737E-013
   6.09187500000000         1.069945133705537E-013
   6.30562500000000         1.094631855687605E-013
   6.51937500000000         1.111985621681153E-013
   6.73312500000000         1.125730345956586E-013
   6.94687500000000         1.140162679623433E-013
   7.16062500000000         1.159715288756286E-013
   7.37437500000000         1.188499648961374E-013
   7.58812500000000         1.229904195725518E-013
   7.80187500000000         1.286280755304152E-013
   8.01562500000000         1.358775230925310E-013
   8.22937500000000         1.447316063430070E-013
   8.44312500000000         1.550762729588957E-013
   8.65687500000000         1.667191728789709E-013
   8.87062500000000         1.794271599615688E-013
   9.08437500000000         1.929666946880287E-013
   9.29812500000000         2.071420224611387E-013
   9.51187500000000         2.218230398420824E-013
   9.72562500000000         2.369613477683765E-013
   9.93937500000000         2.525897898433918E-013
   10.1531250000000         2.688076231514678E-013
   10.3668750000000         2.857533160182271E-013
   10.5806250000000         3.035704482051679E-013
   10.7943750000000         3.223738342412505E-013
   11.0081250000000         3.422218848480362E-013
   11.2218750000000         3.631013522913076E-013
   11.4356250000000         3.849275016748935E-013
   11.6493750000000         4.075623810564715E-013
   11.8631250000000         4.308477120855150E-013
   12.0768750000000         4.546480802394600E-013
   12.2906250000000         4.788985889379292E-013
   12.5043750000000         5.036484183400012E-013
   12.7181250000000         5.290925444791754E-013
   12.9318750000000         5.555866887744834E-013
   13.1456250000000         5.836429355087197E-013
   13.3593750000000         6.139044366845159E-013
   13.5731250000000         6.471028200594403E-013
   13.7868750000000         6.840029975146197E-013
   14.0006250000000         7.253441172002663E-013
   14.2143750000000         7.717818632115891E-013
   14.4281250000000         8.238412205821159E-013
   14.6418750000000         8.818849800557933E-013
   14.8556250000000         9.461000446741936E-013
   15.0693750000000         1.016503558383598E-012
   15.2831250000000         1.092965858559371E-012
   15.4968750000000         1.175245610548047E-012
   15.7106250000000         1.263031369010833E-012
   15.9243750000000         1.355982629204885E-012
   16.1381250000000         1.453764488208101E-012
   16.3518750000000         1.556071578007486E-012
   16.5656250000000         1.662641301519352E-012
   16.7793750000000         1.773254240948080E-012
   16.9931250000000         1.887726869933562E-012
   17.2068750000000         2.005900870763834E-012
   17.4206250000000         2.127633321067279E-012
   17.6343750000000         2.252793373302215E-012
   17.8481250000000         2.381267099770466E-012
   18.0618750000000         2.512971912017008E-012
   18.2756250000000         2.647878732648025E-012
   18.4893750000000         2.786037985500232E-012
   18.7031250000000         2.927604065449751E-012
   18.9168750000000         3.072853175642251E-012
   19.1306250000000         3.222187512874266E-012
   19.3443750000000         3.376123915377461E-012
   19.5581250000000         3.535263789810773E-012
   19.7718750000000         3.700247020877504E-012
   19.9856250000000         3.871694913516169E-012
   20.1993750000000         4.050147700290006E-012
   20.4131250000000         4.236007190937863E-012
   20.6268750000000         4.429492434237121E-012
   20.8406250000000         4.630616564223863E-012
   21.0543750000000         4.839189379996374E-012
   21.2681250000000         5.054848111447601E-012
   21.4818750000000         5.277111685730558E-012
   21.6956250000000         5.505453066186434E-012
   21.9093750000000         5.739379366853933E-012
   22.1231250000000         5.978508004728969E-012
   22.3368750000000         6.222627280174383E-012
   22.5506250000000         6.471732538818945E-012
   22.7643750000000         6.726030380555179E-012
   22.9781250000000         6.985911235195705E-012
   23.1918750000000         7.251892659961651E-012
   23.4056250000000         7.524542339609187E-012
   23.6193750000000         7.804393035344742E-012
   23.8331250000000         8.091862559991030E-012
   24.0468750000000         8.387192359611390E-012
   24.2606250000000         8.690415525777014E-012
   24.4743750000000         9.001360376626735E-012
   24.6881250000000         9.319690610927044E-012
   24.9018750000000         9.644975950131725E-012
   25.1156250000000         9.976783981182021E-012
   25.3293750000000         1.031477863877683E-011
   25.5431250000000         1.065880922376701E-011
   25.7568750000000         1.100897655310114E-011
   25.9706250000000         1.136566325888737E-011
   26.1843750000000         1.172952408230093E-011
   26.3981250000000         1.210143539301689E-011
   26.6118750000000         1.248241257996310E-011
   26.8256250000000         1.287350752057917E-011
   27.0393750000000         1.327570195708918E-011
   27.2531250000000         1.368981428916574E-011
   27.4668750000000         1.411643487275832E-011
   27.6806250000000         1.455589943123686E-011
   27.8943750000000         1.500830524757808E-011
   28.1081250000000         1.547356657584810E-011
   28.3218750000000         1.595150002146123E-011
   28.5356250000000         1.644192355304354E-011
   28.7493750000000         1.694475323083199E-011
   28.9631250000000         1.746007845751867E-011
   29.1768750000000         1.798820313082475E-011
   29.3906250000000         1.852964343394561E-011
   29.6043750000000         1.908508072951307E-011
   29.8181250000000         1.965527694953185E-011
   30.0318750000000         2.024096555843907E-011
   30.2456250000000         2.084273596712596E-011
   30.4593750000000         2.146093221476653E-011
   30.6731250000000         2.209558396677369E-011
   30.8868750000000         2.274638330713150E-011
   31.1006250000000         2.341271450859981E-011
   31.3143750000000         2.409373439798183E-011
   31.5281250000000         2.478849393070128E-011
   31.7418750000000         2.549608322728651E-011
   31.9556250000000         2.621577934062750E-011
   32.1693750000000         2.694717450355827E-011
   32.3831250000000         2.769026496473960E-011
   32.5968750000000         2.844548778539296E-011
   32.8106250000000         2.921369794255961E-011
   33.0243750000000         2.999609093592269E-011
   33.2381250000000         3.079408190824164E-011
   33.4518750000000         3.160915822053575E-011
   33.6656250000000         3.244272942281464E-011
   33.8793750000000         3.329599449712644E-011
   34.0931250000000         3.416984592943685E-011
   34.3068750000000         3.506482247537400E-011
   34.5206250000000         3.598111470635717E-011
   34.7343750000000         3.691861929724373E-011
   34.9481250000000         3.787702910743430E-011
   35.1618750000000         3.885594188190979E-011
   35.3756250000000         3.985496748884737E-011
   35.5893750000000         4.087381421975875E-011
   35.8031250000000         4.191234041633303E-011
   36.0168750000000         4.297056241179395E-011
   36.2306250000000         4.404862008974941E-011
   36.4443750000000         4.514670835979087E-011
   36.6581250000000         4.626499019026798E-011
   36.8718750000000         4.740351113414487E-011
   37.0856250000000         4.856213467037917E-011
   37.2993750000000         4.974051674532610E-011
   37.5131250000000         5.093812976747240E-011
   37.7268750000000         5.215433849910914E-011
   37.9406250000000         5.338851850282797E-011
   38.1543750000000         5.464020085241523E-011
   38.3681250000000         5.590921883271614E-011
   38.5818750000000         5.719582879399031E-011
   38.7956250000000         5.850078025034315E-011
   39.0093750000000         5.982531410462905E-011
   39.2231250000000         6.117107958203654E-011
   39.4368750000000         6.253997468218277E-011
   39.6506250000000         6.393392508709125E-011
   39.8643750000000         6.535463294848364E-011
   40.0781250000000         6.680333416586127E-011
   40.2918750000000         6.828060743881467E-011
   40.5056250000000         6.978627535604458E-011
   40.7193750000000         7.131942779451279E-011
   40.9331250000000         7.287858185802628E-011
   41.1468750000000         7.446197062654463E-011
   41.3606250000000         7.606793148760631E-011
   41.5743750000000         7.769534000164443E-011
   41.7881250000000         7.934402195266910E-011
   42.0018750000000         8.101506626243724E-011
   42.2156250000000         8.271096463170940E-011
   42.4293750000000         8.443552000191412E-011
   42.6431250000000         8.619349527080346E-011
   42.8568750000000         8.799000896341045E-011
   43.0706250000000         8.982973070169795E-011
   43.2843750000000         9.171596963999988E-011
   43.4981250000000         9.364978609848410E-011
   43.7118750000000         9.562927851288027E-011
   43.9256250000000         9.764920044772610E-011
   44.1393750000000         9.970103731781656E-011
   44.3531250000000         1.017736294768156E-010
   44.5668750000000         1.038543578496969E-010
   44.7806250000000         1.059308241243871E-010
   44.9943750000000         1.079928657227636E-010
   45.2081250000000         1.100346637523924E-010
   45.4218750000000         1.120566393153099E-010
   45.6356250000000         1.140668041718933E-010
   45.8493750000000         1.160812510004058E-010
   46.0631250000000         1.181235338584859E-010
   46.2768750000000         1.202228099584831E-010
   46.4906250000000         1.224107730168043E-010
   46.7043750000000         1.247175944033312E-010
   46.9181250000000         1.271672778719255E-010
   47.1318750000000         1.297729980235758E-010
   47.3456250000000         1.325331027896800E-010
   47.5593750000000         1.354284928669439E-010
   47.7731250000000         1.384220209348144E-010
   47.9868750000000         1.414603829032778E-010
   48.2006250000000         1.444786945066727E-010
   48.4143750000000         1.474075957605655E-010
   48.6281250000000         1.501823291489222E-010
   48.8418750000000         1.527528520769860E-010
   49.0556250000000         1.550937244338494E-010
   49.2693750000000         1.572123157575463E-010
   49.4831250000000         1.591538583762871E-010
   49.6968750000000         1.610020581318950E-010
   49.9106250000000         1.628743797803242E-010
   50.1243750000000         1.649117307092211E-010
   50.3381250000000         1.672630073306776E-010
   50.5518750000000         1.700657820305331E-010
   50.7656250000000         1.734251755220591E-010
   50.9793750000000         1.773935642447039E-010
   51.1931250000000         1.819541110556793E-010
   51.4068750000000         1.870110756631449E-010
   51.6206250000000         1.923894102851799E-010
   51.8343750000000         1.978452676148186E-010
   52.0481250000000         2.030877948602674E-010
   52.2618750000000         2.078110804357248E-010
   52.4756250000000         2.117335198166333E-010
   52.6893750000000         2.146403943848751E-010
   52.9031250000000         2.164243299423075E-010
   53.1168750000000         2.171177365570833E-010
   53.3306250000000         2.169114900668578E-010
   53.5443750000000         2.161550979822693E-010
   53.7581250000000         2.153353779835697E-010
   53.9718750000000         2.150331533660667E-010
   54.1856250000000         2.158603889391745E-010
   54.3993750000000         2.183832301729639E-010
   54.6131250000000         2.230391571319513E-010
   54.8268750000000         2.300585090045997E-010
   55.0406250000000         2.394015933027435E-010
   55.2543750000000         2.507221681544198E-010
   55.4681250000000         2.633661479417068E-010
   55.6818750000000         2.764109591126514E-010
   55.8956250000000         2.887463320495582E-010
   56.1093750000000         2.991918993409891E-010
   56.3231250000000         3.066414062468270E-010
   56.5368750000000         3.102183496080056E-010
   56.7506250000000         3.094241950174225E-010
   56.9643750000000         3.042586487552765E-010
   57.1781250000000         2.952922745402691E-010
   57.3918750000000         2.836752734530059E-010
   57.6056250000000         2.710723789974089E-010
   57.8193750000000         2.595221000361661E-010
   58.0331250000000         2.512281589724079E-010
   58.2468750000000         2.483008312019966E-010
   58.4606250000000         2.524747412865898E-010
   58.6743750000000         2.648362206121354E-010
   58.8881250000000         2.855964423244526E-010
   59.1018750000000         3.139453798144255E-010
   59.3156250000000         3.480158107798163E-010
   59.5293750000000         3.849762721171953E-010
   59.7431250000000         4.212578526128821E-010
   59.9568750000000         4.529033225517017E-010
   60.1706250000000         4.760101595513210E-010
   60.3843750000000         4.872236271399642E-010
   60.5981250000000         4.842243381751151E-010
   60.8118750000000         4.661486096426044E-010
   61.0256250000000         4.338808177848045E-010
   61.2393750000000         3.901655988664019E-010
   61.4531250000000         3.395039312561992E-010
   61.6668750000000         2.878197049420951E-010
   61.8806250000000         2.419102680872153E-010
   62.0943750000000         2.087227730131377E-010
   62.3081250000000         1.945245755816411E-010
   62.5218750000000         2.040569990248174E-010
   62.7356250000000         2.397742452116533E-010
   62.9493750000000         3.012706416860399E-010
   63.1631250000000         3.849883445793454E-010
   63.3768750000000         4.842740393073567E-010
   63.5906250000000         5.898185882070599E-010
   63.8043750000000         6.904709421767032E-010
   64.0181250000000         7.743712348044530E-010
   64.2318750000000         8.303029984735621E-010
   64.4456250000000         8.491264435635839E-010
   64.6593750000000         8.251290380897870E-010
   64.8731250000000         7.571206557193592E-010
   65.0868750000000         6.491112109199761E-010
   65.3006250000000         5.104398938205116E-010
   65.5143750000000         3.552754198152081E-010
   65.7281250000000         2.014723229459632E-010
   65.9418750000000         6.884323062814990E-011
   66.1556250000000        -2.301644926906320E-011
   66.3693750000000        -5.714565480750193E-011
   66.5831250000000        -2.161751182662816E-011
   66.7968750000000         8.836656688941803E-011
   67.0106250000000         2.689762583640567E-010
   67.2243750000000         5.070987622273111E-010
   67.4381250000000         7.807183536851582E-010
   67.6518750000000         1.060418047778219E-009
   67.8656250000000         1.311973294932814E-009
   68.0793750000000         1.499877370175332E-009
   68.2931250000000         1.591509959507616E-009
   68.5068750000000         1.561548907067441E-009
   68.7206250000000         1.396144527418691E-009
   68.9343750000000         1.096338909943998E-009
   69.1481250000000         6.802285767990735E-010
   69.3618750000000         1.834424272791088E-010
   69.5756250000000        -3.423628167197083E-010
   69.7893750000000        -8.331074736283658E-010
   70.0031250000000        -1.217895339674820E-009
   70.2168750000000        -1.426288351445284E-009
   70.4306250000000        -1.396685990155876E-009
   70.6443750000000        -1.085045106664082E-009
   70.8581250000000        -4.730290282763452E-010
   71.0718750000000         4.253957825146771E-010
   71.2856250000000         1.559874491333298E-009
   71.4993750000000         2.842923169899509E-009
   71.7131250000000         4.153136067674250E-009
   71.9268750000000         5.342620674884920E-009
   72.1406250000000         6.248542822138519E-009
   72.3543750000000         6.708222639465122E-009
   72.5681250000000         6.576774931560387E-009
   72.7818750000000         5.745877785366469E-009
   72.9956250000000         4.161926232750497E-009
   73.2093750000000         1.841626479861615E-009
   73.4231250000000        -1.116953013170797E-009
   73.6368750000000        -4.529708860374951E-009
   73.8506250000000        -8.129696468603289E-009
   74.0643750000000        -1.157913814031743E-008
   74.2781250000000        -1.449048577293748E-008
   74.4918750000000        -1.645594649819656E-008
   74.7056250000000        -1.708398442193512E-008
   74.9193750000000        -1.604042758531470E-008
   75.1331250000000        -1.309101936904684E-008
   75.3468750000000        -8.141642984289057E-009
   75.5606250000000        -1.272096351436369E-009
   75.7743750000000         7.240730530512635E-009
   75.9881250000000         1.691407635290421E-008
   76.2018750000000         2.706798919227927E-008
   76.4156250000000         3.685341164198390E-008
   76.6293750000000         4.530016736250888E-008
   76.8431250000000         5.138365157691441E-008
   77.0568750000000         5.410720213023314E-008
   77.2706250000000         5.259531192175973E-008
   77.4843750000000         4.619119636909896E-008
   77.6981250000000         3.455091508064208E-008
   77.9118750000000         1.772542114328645E-008
   78.1256250000000        -3.778291741062689E-009
   78.3393750000000        -2.896525692244434E-008
   78.5531250000000        -5.635684351540807E-008
   78.7668750000000        -8.403628620984178E-008
   78.9806250000000        -1.097376842755336E-007
   79.1943750000000        -1.309774399719948E-007
   79.4081250000000        -1.452234842818160E-007
   79.6218750000000        -1.500939248477610E-007
   79.8356250000000        -1.435732379476396E-007
   80.0493750000000        -1.242311215839262E-007
   80.2631250000000        -9.142693297766489E-008
   80.4768750000000        -4.548152298219790E-008
   80.6906250000000         1.220153155309637E-008
   80.9043750000000         7.908167133395620E-008
   81.1181250000000         1.515073470958683E-007
   81.3318750000000         2.248310296159890E-007
   81.5456250000000         2.936162872564955E-007
   81.7593750000000         3.519333516185461E-007
   81.9731250000000         3.937324570622524E-007
   82.1868750000000         4.132770857017642E-007
   82.4006250000000         4.056126134326687E-007
   82.6143750000000         3.670402873367879E-007
   82.8281250000000         2.955624981817788E-007
   83.0418750000000         1.912634045002174E-007
   83.2556250000000         5.658947029215912E-008
   83.4693750000000        -1.035023931968128E-007
   83.6831250000000        -2.815556013388320E-007
   83.8968750000000        -4.678018049906487E-007
   84.1106250000000        -6.505336885925974E-007
   84.3243750000000        -8.166583142137375E-007
   84.5381250000000        -9.524136350311081E-007
   84.7518750000000        -1.044217657815559E-006
   84.9656250000000        -1.079607385062327E-006
   85.1793750000000        -1.048214042631397E-006
   85.3931250000000        -9.427130878658641E-007
   85.6068750000000        -7.596828814031305E-007
   85.8206250000000        -5.003053116561560E-007
   86.0343750000000        -1.708454801289869E-007
   86.2481250000000         2.171440825138120E-007
   86.4618750000000         6.469364623067532E-007
   86.6756250000000         1.097085823732095E-006
   86.8893750000000         1.542230674264670E-006
   87.1031250000000         1.954228465512480E-006
   87.3168750000000         2.303582387535669E-006
   87.5306250000000         2.561099125338159E-006
   87.7443750000000         2.699696331411379E-006
   87.9581250000000         2.696262084189416E-006
   88.1718750000000         2.533456985620124E-006
   88.3856250000000         2.201343918733252E-006
   88.5993750000000         1.698731646559014E-006
   88.8131250000000         1.034126812126494E-006
   89.0268750000000         2.262044826364947E-007
   89.2406250000000        -6.962703108651035E-007
   89.4543750000000        -1.695109501507959E-006
   89.6681250000000        -2.723964366842910E-006
   89.8818750000000        -3.730155232422018E-006
   90.0956250000000        -4.657004663090531E-006
   90.3093750000000        -5.446576214563441E-006
   90.5231250000000        -6.042690581004825E-006
   90.7368750000000        -6.394066718518577E-006
   90.9506250000000        -6.457419114683600E-006
   91.1643750000000        -6.200335275742975E-006
   91.3781250000000        -5.603760661423555E-006
   91.5918750000000        -4.663932046870098E-006
   91.8056250000000        -3.393624299340933E-006
   92.0193750000000        -1.822608811858560E-006
   92.2331250000000         2.737322517797233E-009
   92.4468750000000         2.020686111597712E-006
   92.6606250000000         4.156243270953705E-006
   92.8743750000000         6.323979860990241E-006
   93.0881250000000         8.431482915296681E-006
   93.3018750000000         1.038325806776093E-005
   93.5156250000000         1.208488720478600E-005
   93.7293750000000         1.344722532908130E-005
   93.9431250000000         1.439041463248401E-005
   94.1568750000000         1.484750096186954E-005
   94.3706250000000         1.476745828865486E-005
   94.5843750000000         1.411745944383509E-005
   94.7981250000000         1.288427440513006E-005
   95.0118750000000         1.107472823386846E-005
   95.2256250000000         8.715206191395523E-006
   95.4393750000000         5.850250075772322E-006
   95.6531250000000         2.540343723678849E-006
   95.8668750000000        -1.140966659376568E-006
   96.0806250000000        -5.110433369062140E-006
   96.2943750000000        -9.278739041012947E-006
   96.5081250000000        -1.355417687482511E-005
   96.7218750000000        -1.784615915152100E-005
   96.9356250000000        -2.206835121976586E-005
   97.1493750000000        -2.614125908104943E-005
   97.3631250000000        -2.999414129916852E-005
   97.5768750000000        -3.356616731250354E-005
   97.7906250000000        -3.680680080894606E-005
   98.0043750000000        -3.967544469039227E-005
   98.2181250000000        -4.214043921904573E-005
   98.4318750000000        -4.417755325104224E-005
   98.6456250000000        -4.576814648775831E-005
   98.8593750000000        -4.689720554159712E-005
   99.0731250000000        -4.755146632742974E-005
   99.2868750000000        -4.771782888868423E-005
   99.5006250000000        -4.738224839704478E-005
   99.7143750000000        -4.652924899796430E-005
   99.9281250000000        -4.514215773695027E-005
   100.141875000000        -4.320409723518927E-005
   100.355625000000        -4.069971204010559E-005
   100.569375000000        -3.761753906595877E-005
   100.783125000000        -3.395287183797379E-005
   100.996875000000        -2.971091579997920E-005
   101.210625000000        -2.490999174193723E-005
   101.424375000000        -1.958451973860136E-005
   101.638125000000        -1.378750920514194E-005
   101.851875000000        -7.592292988252842E-006
   102.065625000000        -1.093274810668026E-006
   102.279375000000         5.594491397023843E-006
   102.493125000000         1.233700718984065E-005
   102.706875000000         1.898436090863168E-005
   102.920625000000         2.537504150321268E-005
   103.134375000000         3.134140586443491E-005
   103.348125000000         3.671608785121771E-005
   103.561875000000         4.133906292142406E-005
   103.775625000000         4.506502157736371E-005
   103.989375000000         4.777066211551818E-005
   104.203125000000         4.936149187568782E-005
   104.416875000000         4.977772857937796E-005
   104.630625000000         4.899892033053533E-005
   104.844375000000         4.704695386288842E-005
   105.058125000000         4.398719362207853E-005
   105.271875000000         3.992758583181151E-005
   105.485625000000         3.501566713441722E-005
   105.699375000000         2.943353103718281E-005
   105.913125000000         2.339092085863563E-005
   106.126875000000         1.711672843529268E-005
   106.340625000000         1.084927685089167E-005
   106.554375000000         4.825846669206015E-006
   106.768125000000        -7.280367900063027E-007
   106.981875000000        -5.609006881370926E-006
   107.195625000000        -9.645400858726038E-006
   107.409375000000        -1.270542837476064E-005
   107.623125000000        -1.470350536867153E-005
   107.836875000000        -1.560438368793540E-005
   108.050625000000        -1.542481825575249E-005
   108.264375000000        -1.423264241118380E-005
   108.478125000000        -1.214326113019742E-005
   108.691875000000        -9.313713296186618E-006
   108.905625000000        -5.934589802180163E-006
   109.119375000000        -2.220215968098500E-006
   109.333125000000         1.602392856671213E-006
   109.546875000000         5.305220823753783E-006
   109.760625000000         8.670964036996927E-006
   109.974375000000         1.150413828495637E-005
   110.188125000000         1.364098482045449E-005
   110.401875000000         1.495764174512622E-005
   110.615625000000         1.537614417573194E-005
   110.829375000000         1.486793733864726E-005
   111.043125000000         1.345472599457189E-005
   111.256875000000         1.120663291844085E-005
   111.470625000000         8.237789691855857E-006
   111.684375000000         4.699625869888315E-006
   111.898125000000         7.722492115327258E-007
   112.111875000000        -3.345587312396286E-006
   112.325625000000        -7.447362533747166E-006
   112.539375000000        -1.132989905331286E-005
   112.753125000000        -1.480409681261086E-005
   112.966875000000        -1.770470602210891E-005
   113.180625000000        -1.989862128939943E-005
   113.394375000000        -2.129127152996570E-005
   113.608125000000        -2.183079561935071E-005
   113.821875000000        -2.150982449990759E-005
   114.035625000000        -2.036482856236106E-005
   114.249375000000        -1.847312630895572E-005
   114.463125000000        -1.594777856959291E-005
   114.676875000000        -1.293070464072431E-005
   114.890625000000        -9.584446581948454E-006
   115.104375000000        -6.083070978071882E-006
   115.318125000000        -2.602730926554500E-006
   115.531875000000         6.875861493842621E-007
   115.745625000000         3.634626198318326E-006
   115.959375000000         6.108307259701572E-006
   116.173125000000         8.007662103453981E-006
   116.386875000000         9.265013077559633E-006
   116.600625000000         9.848214790414145E-006
   116.814375000000         9.760913041476148E-006
   117.028125000000         9.040880081909350E-006
   117.241875000000         7.756590581388814E-006
   117.455625000000         6.002293993156060E-006
   117.669375000000         3.891912678539140E-006
   117.883125000000         1.552147665365947E-006
   118.096875000000        -8.847969281676846E-007
   118.310625000000        -3.288454789001238E-006
   118.524375000000        -5.536906236204315E-006
   118.738125000000        -7.522797962591181E-006
   118.951875000000        -9.158275759025943E-006
   119.165625000000        -1.037860609546667E-005
   119.379375000000        -1.114434624966641E-005
   119.593125000000        -1.144201135413971E-005
   119.806875000000        -1.128327498714715E-005
   120.020625000000        -1.070282263994967E-005
   120.234375000000        -9.755049880507210E-006
   120.448125000000        -8.509855351073467E-006
   120.661875000000        -7.047819871013979E-006
   120.875625000000        -5.455084959642141E-006
   121.089375000000        -3.818246346051547E-006
   121.303125000000        -2.219561026310708E-006
   121.516875000000        -7.327318796555231E-007
   121.730625000000         5.805154587524616E-007
   121.944375000000         1.672909205862973E-006
   122.158125000000         2.513074549858900E-006
   122.371875000000         3.085925870601531E-006
   122.585625000000         3.392057871235183E-006
   122.799375000000         3.446245997781685E-006
   123.013125000000         3.275216709716080E-006
   123.226875000000         2.914885070618127E-006
   123.440625000000         2.407278866690418E-006
   123.654375000000         1.797374263519450E-006
   123.868125000000         1.130058250795985E-006