  -1.60312500000000         7.067522982009338E-020
  -1.38937500000000         2.408679602591916E-017
  -1.17562500000000         2.002499858451754E-016
 -0.961875000000000         1.089525788193243E-015
 -0.748125000000000         4.684954251279300E-015
 -0.534375000000000         1.690202589401042E-014
 -0.320625000000000         5.263462422190299E-014
 -0.106875000000000         1.440884284987838E-013
  0.106875000000000         3.517621090639945E-013
  0.320625000000000         7.758552062168964E-013
  0.534375000000000         1.564053272981399E-012
  0.748125000000000         2.911694952434116E-012
  0.961875000000000         5.051297007375795E-012
   1.17562500000000         8.230868828866764E-012
   1.38937500000000         1.268110882361434E-011
   1.60312500000000         1.858117466514052E-011
   1.81687500000000         2.602171518226934E-011
   2.03062500000000         3.497229794069212E-011
   2.24437500000000         4.526795755724539E-011
   2.45812500000000         5.660012050186549E-011
   2.67187500000000         6.853160400994844E-011
   2.88562500000000         8.052968087784884E-011
   3.09937500000000         9.200991848124505E-011
   3.31312500000000         1.023903662851563E-010
   3.52687500000000         1.111502497567452E-010
   3.74062500000000         1.178904842183999E-010
   3.95437500000000         1.223596599561354E-010
   4.16812500000000         1.244813531686831E-010
   4.38187500000000         1.243633457309541E-010
   4.59562500000000         1.222601959479413E-010
   4.80937500000000         1.185423332285783E-010
   5.02312500000000         1.136345311638401E-010
   5.23687500000000         1.079690030821270E-010
   5.45062500000000         1.019254440700963E-010
   5.66437500000000         9.579805586521385E-011
   5.87812500000000         8.980092016845731E-011
   6.09187500000000         8.405049674601013E-011
   6.30562500000000         7.862243691126491E-011
   6.51937500000000         7.359048515190103E-011
   6.73312500000000         6.908606969750983E-011
   6.94687500000000         6.531537066349214E-011
   7.16062500000000         6.261084990064730E-011
   7.37437500000000         6.141257777246853E-011
   7.58812500000000         6.223071017150032E-011
   7.80187500000000         6.557379885228542E-011
   8.01562500000000         7.188096927170593E-011
   8.22937500000000         8.142264922939965E-011
   8.44312500000000         9.422189330896969E-011
   8.65687500000000         1.100161605614238E-010
   8.87062500000000         1.282365080596431E-010
   9.08437500000000         1.480470057225275E-010
   9.29812500000000         1.684149227643342E-010
   9.51187500000000         1.882283242952035E-010
   9.72562500000000         2.064013413263994E-010
   9.93937500000000         2.220169743236100E-010
   10.1531250000000         2.344085921093708E-010
   10.3668750000000         2.432275989426596E-010
   10.5806250000000         2.484590010126145E-010
   10.7943750000000         2.503774932756954E-010
   11.0081250000000         2.494840964570643E-010
   11.2218750000000         2.463919250613419E-010
   11.4356250000000         2.417289604549790E-010
   11.6493750000000         2.360435841073306E-010
   11.8631250000000         2.297438836873525E-010
   12.0768750000000         2.230751908493772E-010
   12.2906250000000         2.161590202590700E-010
   12.5043750000000         2.090448757719757E-010
   12.7181250000000         2.018060723035804E-010
   12.9318750000000         1.946281843468170E-010
   13.1456250000000         1.878689174751822E-010
   13.3593750000000         1.820838258710787E-010
   13.5731250000000         1.780136314443760E-010
   13.7868750000000         1.764960456488782E-010
   14.0006250000000         1.783632064287828E-010
   14.2143750000000         1.842924802170876E-010
   14.4281250000000         1.946748649920801E-010
   14.6418750000000         2.095153982918925E-010
   14.8556250000000         2.283703344633967E-010
   15.0693750000000         2.503606500046934E-010
   15.2831250000000         2.742492224696933E-010
   15.4968750000000         2.985804673471438E-010
   15.7106250000000         3.218513143289152E-010
   15.9243750000000         3.426988411506270E-010
   16.1381250000000         3.600654471019049E-010
   16.3518750000000         3.733301848838606E-010
   16.5656250000000         3.823537484795927E-010
   16.7793750000000         3.874705938138463E-010
   16.9931250000000         3.893951199964451E-010
   17.2068750000000         3.890758200656631E-010
   17.4206250000000         3.875386890308949E-010
   17.6343750000000         3.856962257020617E-010
   17.8481250000000         3.842184392042780E-010
   18.0618750000000         3.834426138149971E-010
   18.2756250000000         3.833404329268024E-010
   18.4893750000000         3.835885744649375E-010
   18.7031250000000         3.836455323205661E-010
   18.9168750000000         3.829227566287578E-010
   19.1306250000000         3.809089118946316E-010
   19.3443750000000         3.773371459725397E-010
   19.5581250000000         3.722496421909806E-010
   19.7718750000000         3.660496810790810E-010
   19.9856250000000         3.594707104289778E-010
   20.1993750000000         3.534855511817213E-010
   20.4131250000000         3.491767576536560E-010
   20.6268750000000         3.475861718128936E-010
   20.8406250000000         3.495686066539680E-010
   21.0543750000000         3.556603872232037E-010
   21.2681250000000         3.660194699172672E-010
   21.4818750000000         3.803959765312495E-010
   21.6956250000000         3.981785208617997E-010
   21.9093750000000         4.184812270364399E-010
   22.1231250000000         4.402722009020315E-010
   22.3368750000000         4.625067804420405E-010
   22.5506250000000         4.842568430558059E-010
   22.7643750000000         5.048175545317589E-010
   22.9781250000000         5.237646672389311E-010
   23.1918750000000         5.409663619281067E-010
   23.4056250000000         5.565566815298963E-010
   23.6193750000000         5.708574981133755E-010
   23.8331250000000         5.842849269684698E-010
   24.0468750000000         5.972494853938624E-010
   24.2606250000000         6.100686942763043E-010
   24.4743750000000         6.228940377626346E-010
   24.6881250000000         6.356908886195673E-010
   24.9018750000000         6.482378778901192E-010
   25.1156250000000         6.601921689168238E-010
   25.3293750000000         6.711447983799644E-010
   25.5431250000000         6.807338703450813E-010
   25.7568750000000         6.887127232905436E-010
   25.9706250000000         6.950449424170707E-010
   26.1843750000000         6.999341625590819E-010
   26.3981250000000         7.038550198208053E-010
   26.6118750000000         7.075023778461084E-010
   26.8256250000000         7.117324890355566E-010
   27.0393750000000         7.174714439127777E-010
   27.2531250000000         7.255921350895731E-010
   27.4668750000000         7.368047504914151E-010
   27.6806250000000         7.515607734559492E-010
   27.8943750000000         7.699796493294787E-010
   28.1081250000000         7.918289220173542E-010
   28.3218750000000         8.165469851468131E-010
   28.5356250000000         8.432912437694341E-010
   28.7493750000000         8.710435879174749E-010
   28.9631250000000         8.987303959792874E-010
   29.1768750000000         9.253316294353465E-010
   29.3906250000000         9.499945459300164E-010
   29.6043750000000         9.721120675669007E-010
   29.8181250000000         9.913564770447314E-010
   30.0318750000000         1.007679035961743E-009
   30.2456250000000         1.021267563680662E-009
   30.4593750000000         1.032466083368269E-009
   30.6731250000000         1.041689434659856E-009
   30.8868750000000         1.049328097503015E-009
   31.1006250000000         1.055672290984329E-009
   31.3143750000000         1.060866966949683E-009
   31.5281250000000         1.064900117232297E-009
   31.7418750000000         1.067635414523955E-009
   31.9556250000000         1.068865818816312E-009
   32.1693750000000         1.068405636505023E-009
   32.3831250000000         1.066171231574816E-009
   32.5968750000000         1.062268015118251E-009
   32.8106250000000         1.057030984473550E-009
   33.0243750000000         1.051043581094784E-009
   33.2381250000000         1.045109057586036E-009
   33.4518750000000         1.040177139550822E-009
   33.6656250000000         1.037243085877943E-009
   33.8793750000000         1.037230728426600E-009
   34.0931250000000         1.040869209318677E-009
   34.3068750000000         1.048601616839755E-009
   34.5206250000000         1.060518201117581E-009
   34.7343750000000         1.076339758777960E-009
   34.9481250000000         1.095453537225055E-009
   35.1618750000000         1.116987971943683E-009
   35.3756250000000         1.139928096544849E-009
   35.5893750000000         1.163253369491371E-009
   35.8031250000000         1.186065175390898E-009
   36.0168750000000         1.207704079942185E-009
   36.2306250000000         1.227833817581204E-009
   36.4443750000000         1.246463583390741E-009
   36.6581250000000         1.263933339901598E-009
   36.8718750000000         1.280847379761629E-009
   37.0856250000000         1.297954410866113E-009
   37.2993750000000         1.316023554358822E-009
   37.5131250000000         1.335697585410896E-009
   37.7268750000000         1.357390790938121E-009
   37.9406250000000         1.381182497885055E-009
   38.1543750000000         1.406795380635424E-009
   38.3681250000000         1.433603823039366E-009
   38.5818750000000         1.460726542948001E-009
   38.7956250000000         1.487114548195319E-009
   39.0093750000000         1.511723814868134E-009
   39.2231250000000         1.533660124600497E-009
   39.4368750000000         1.552298334462360E-009
   39.6506250000000         1.567401560661636E-009
   39.8643750000000         1.579156973643862E-009
   40.0781250000000         1.588170068206130E-009
   40.2918750000000         1.595394511878293E-009
   40.5056250000000         1.602019179134912E-009
   40.7193750000000         1.609325199436148E-009
   40.9331250000000         1.618529766668383E-009
   41.1468750000000         1.630658152819238E-009
   41.3606250000000         1.646424776862117E-009
   41.5743750000000         1.666185252707448E-009
   41.7881250000000         1.689927866634998E-009
   42.0018750000000         1.717304795158756E-009
   42.2156250000000         1.747719203351960E-009
   42.4293750000000         1.780404720123319E-009
   42.6431250000000         1.814533747563766E-009
   42.8568750000000         1.849276665964398E-009
   43.0706250000000         1.883861500819454E-009
   43.2843750000000         1.917579865708857E-009
   43.4981250000000         1.949788933187550E-009
   43.7118750000000         1.979894698600898E-009
   43.9256250000000         2.007324483003043E-009
   44.1393750000000         2.031571999975302E-009
   44.3531250000000         2.052214989008105E-009
   44.5668750000000         2.069023267534361E-009
   44.7806250000000         2.082058014331855E-009
   44.9943750000000         2.091780782930224E-009
   45.2081250000000         2.099128973281310E-009
   45.4218750000000         2.105532105029894E-009
   45.6356250000000         2.112815865918647E-009
   45.8493750000000         2.123009274325720E-009
   46.0631250000000         2.138027027498756E-009
   46.2768750000000         2.159287387444284E-009
   46.4906250000000         2.187296023012442E-009
   46.7043750000000         2.221272938454094E-009
   46.9181250000000         2.258913084806049E-009
   47.1318750000000         2.296369491483330E-009
   47.3456250000000         2.328488217668051E-009
   47.5593750000000         2.349362990397329E-009
   47.7731250000000         2.353140632172708E-009
   47.9868750000000         2.335067556973864E-009
   48.2006250000000         2.292578179762763E-009
   48.4143750000000         2.226329172042770E-009
   48.6281250000000         2.140942629887655E-009
   48.8418750000000         2.045302666990620E-009
   49.0556250000000         1.952250824596578E-009
   49.2693750000000         1.877591400621606E-009
   49.4831250000000         1.838435550001836E-009
   49.6968750000000         1.850956651519597E-009
   49.9106250000000         1.927832808365862E-009
   50.1243750000000         2.075647421805222E-009
   50.3381250000000         2.292646051190764E-009
   50.5518750000000         2.567222284634423E-009
   50.7656250000000         2.877541274240594E-009
   50.9793750000000         3.192506682980016E-009
   51.1931250000000         3.474251122517317E-009
   51.4068750000000         3.682020824094513E-009
   51.6206250000000         3.777215387864870E-009
   51.8343750000000         3.729068193033991E-009
   52.0481250000000         3.520292997664106E-009
   52.2618750000000         3.151920738273776E-009
   52.4756250000000         2.646515071899131E-009
   52.6893750000000         2.049029148803083E-009
   52.9031250000000         1.424797615388146E-009
   53.1168750000000         8.544439691975403E-010
   53.3306250000000         4.257957790940263E-010
   53.5443750000000         2.234938820768561E-010
   53.7581250000000         3.172000647004557E-010
   53.9718750000000         7.497955034799593E-010
   54.1856250000000         1.527160329924505E-009
   54.3993750000000         2.611106689005197E-009
   54.6131250000000         3.916962418730068E-009
   54.8268750000000         5.316891027758844E-009
   55.0406250000000         6.649418183169621E-009
   55.2543750000000         7.734952166394308E-009
   55.4681250000000         8.396148710675150E-009
   55.6818750000000         8.481315206995444E-009
   55.8956250000000         7.888185456489918E-009
   56.1093750000000         6.585041798858458E-009
   56.3231250000000         4.626004555154862E-009
   56.5368750000000         2.157639710854252E-009
   56.7506250000000        -5.854100998980670E-010
   56.9643750000000        -3.296763317886123E-009
   57.1781250000000        -5.626396781124138E-009
   57.3918750000000        -7.218568314166204E-009
   57.6056250000000        -7.756192195653020E-009
   57.8193750000000        -7.006861337059163E-009
   58.0331250000000        -4.864882482167267E-009
   58.2468750000000        -1.383375031188465E-009
   58.4606250000000         3.209155472334800E-009
   58.6743750000000         8.512018938962442E-009
   58.8881250000000         1.397777596179984E-008
   59.1018750000000         1.895972421836587E-008
   59.3156250000000         2.277854621025910E-008
   59.5293750000000         2.480230265989618E-008
   59.7431250000000         2.453151560608812E-008
   59.9568750000000         2.167936114447064E-008
   60.1706250000000         1.623621713950064E-008
   60.3843750000000         8.508499773623136E-009
   60.5981250000000        -8.765510812813404E-010
   60.8118750000000        -1.100504832705015E-008
   61.0256250000000        -2.075048785836229E-008
   61.2393750000000        -2.888351019199677E-008
   61.4531250000000        -3.420848517080743E-008
   61.6668750000000        -3.571331372363233E-008
   61.8806250000000        -3.271594311792912E-008
   62.0943750000000        -2.498905548226760E-008
   62.3081250000000        -1.284512507185819E-008
   62.5218750000000         2.833357044444349E-009
   62.7356250000000         2.062884031671736E-008
   62.9493750000000         3.869245422376118E-008
   63.1631250000000         5.491227672579602E-008
   63.3768750000000         6.713353307399325E-008
   63.5906250000000         7.341051730172743E-008
   63.8043750000000         7.226386781281353E-008
   64.0181250000000         6.291310385322310E-008
   64.2318750000000         4.545408460395909E-008
   64.4456250000000         2.095382209901309E-008
   64.6593750000000        -8.557922125195814E-009
   64.8731250000000        -4.021129607421170E-008
   65.0868750000000        -7.053203793039436E-008
   65.3006250000000        -9.577565341414610E-008
   65.5143750000000        -1.123326131278728E-007
   65.7281250000000        -1.171658754058381E-007
   65.9418750000000        -1.082340320549477E-007
   66.1556250000000        -8.484991200193353E-008
   66.3693750000000        -4.792635977424733E-008
   66.5831250000000        -6.824890006599643E-011
   66.7968750000000         5.451733307705153E-008
   67.0106250000000         1.103035819481112E-007
   67.2243750000000         1.609098769043786E-007
   67.4381250000000         1.997204858471609E-007
   67.6518750000000         2.206053710187808E-007
   67.8656250000000         2.186757398519504E-007
   68.0793750000000         1.909957058246121E-007
   68.2931250000000         1.371673550010226E-007
   68.5068750000000         5.971104982681294E-008
   68.7206250000000        -3.582463308973643E-008
   68.9343750000000        -1.410675538448614E-007
   69.1481250000000        -2.453577892404377E-007
   69.3618750000000        -3.365987043879486E-007
   69.5756250000000        -4.023730230717323E-007
   69.7893750000000        -4.312409998672596E-007
   70.0031250000000        -4.141095506443399E-007
   70.2168750000000        -3.455409341721814E-007
   70.4306250000000        -2.248603418712249E-007
   70.6443750000000        -5.692442348207244E-008
   70.8581250000000         1.475702781380007E-007
   71.0718750000000         3.723301100629144E-007
   71.2856250000000         5.963073354261351E-007
   71.4993750000000         7.951409286365593E-007
   71.7131250000000         9.431354421969532E-007
   71.9268750000000         1.015659719127571E-006
   72.1406250000000         9.917926199150827E-007
   72.3543750000000         8.569973324768041E-007
   72.5681250000000         6.055744433341574E-007
   72.7818750000000         2.426310680146035E-007
   72.9956250000000        -2.146877222232585E-007
   73.2093750000000        -7.369263404201944E-007
   73.4231250000000        -1.283169656785714E-006
   73.6368750000000        -1.803103900190009E-006
   73.8506250000000        -2.240277276762031E-006
   74.0643750000000        -2.536441557978056E-006
   74.2781250000000        -2.636742757187221E-006
   74.4918750000000        -2.495420041103402E-006
   74.7056250000000        -2.081577612951944E-006
   74.9193750000000        -1.384523939794000E-006
   75.1331250000000        -4.181359125017152E-007
   75.3468750000000         7.762898700993749E-007
   75.5606250000000         2.129184971053716E-006
   75.7743750000000         3.544241600420933E-006
   75.9881250000000         4.902566531362754E-006
   76.2018750000000         6.069502419283201E-006
   76.4156250000000         6.903939304922458E-006
   76.6293750000000         7.269698168207728E-006
   76.8431250000000         7.048327030264057E-006
   77.0568750000000         6.152429045117838E-006
   77.2706250000000         4.538463036043845E-006
   77.4843750000000         2.217841038169706E-006
   77.6981250000000        -7.348863045271355E-007
   77.9118750000000        -4.177901864678448E-006
   78.1256250000000        -7.903028023726694E-006
   78.3393750000000        -1.164236665228517E-005
   78.5531250000000        -1.508099843563432E-005
   78.7668750000000        -1.787561048099189E-005
   78.9806250000000        -1.967841018174510E-005
   79.1943750000000        -2.016515226998974E-005
   79.4081250000000        -1.906559687091131E-005
   79.6218750000000        -1.619427357058077E-005
   79.8356250000000        -1.147909635334469E-005
   80.0493750000000        -4.985198426855770E-006
   80.2631250000000         3.068630385102305E-006
   80.4768750000000         1.230329391345644E-005
   80.6906250000000         2.218446836593596E-005
   80.9043750000000         3.204068569262974E-005
   81.1181250000000         4.109484438496762E-005
   81.3318750000000         4.850857269327024E-005
   81.5456250000000         5.343778795748741E-005
   81.7593750000000         5.509670701798616E-005
   81.9731250000000         5.282654944314610E-005
   82.1868750000000         4.616432724431959E-005
   82.4006250000000         3.490651578603137E-005
   82.6143750000000         1.916212572979244E-005
   82.8281250000000        -6.101959183800760E-007
   83.0418750000000        -2.358588237715426E-005
   83.2556250000000        -4.858287820934291E-005
   83.4693750000000        -7.409733210566829E-005
   83.6831250000000        -9.836740613921405E-005
   83.8968750000000        -1.194641090342963E-004
   84.1106250000000        -1.354059754770690E-004
   84.3243750000000        -1.442923272480530E-004
   84.5381250000000        -1.444479153149043E-004
   84.7518750000000        -1.345701113575147E-004
   84.9656250000000        -1.138686377707676E-004
   85.1793750000000        -8.218722848950128E-005
   85.3931250000000        -4.009669674229240E-005
   85.6068750000000         1.105028757142487E-005
   85.8206250000000         6.911082542548116E-005
   86.0343750000000         1.311956327329471E-004
   86.2481250000000         1.937679805977073E-004
   86.4618750000000         2.527971917873874E-004
   86.6756250000000         3.039624343691397E-004
   86.8893750000000         3.428987593977401E-004
   87.1031250000000         3.654737112372848E-004
   87.3168750000000         3.680796554075958E-004
   87.5306250000000         3.479244735951237E-004
   87.7443750000000         3.033016964558034E-004
   87.9581250000000         2.338206685464063E-004
   88.1718750000000         1.405780943320222E-004
   88.3856250000000         2.625435604850546E-005
   88.5993750000000        -1.048787018064593E-004
   88.8131250000000        -2.470473726230422E-004
   89.0268750000000        -3.931665164367098E-004
   89.2406250000000        -5.351281802610467E-004
   89.4543750000000        -6.641793618856039E-004
   89.6681250000000        -7.713735232630847E-004
   89.8818750000000        -8.480746013493491E-004
   90.0956250000000        -8.864873133126820E-004
   90.3093750000000        -8.801839027006461E-004
   90.5231250000000        -8.245954574024316E-004
   90.7368750000000        -7.174357973629004E-004
   90.9506250000000        -5.590278195948312E-004
   91.1643750000000        -3.525061129393571E-004
   91.3781250000000        -1.038754921327434E-004
   91.5918750000000         1.780874122250268E-004
   91.8056250000000         4.820936212692101E-004
   92.0193750000000         7.947569344345543E-004
   92.2331250000000         1.101149620507512E-003
   92.4468750000000         1.385474324847995E-003
   92.6606250000000         1.631819662807508E-003
   92.8743750000000         1.824960448680072E-003
   93.0881250000000         1.951159155968369E-003
   93.3018750000000         1.998923400616885E-003
   93.5156250000000         1.959675208192050E-003
   93.7293750000000         1.828291614408746E-003
   93.9431250000000         1.603482608124520E-003
   94.1568750000000         1.287981221564921E-003
   94.3706250000000         8.885311962415495E-004
   94.5843750000000         4.156694531795960E-004
   94.7981250000000        -1.166871783220294E-004
   95.0118750000000        -6.918296704116839E-004
   95.2256250000000        -1.290986967281754E-003
   95.4393750000000        -1.894157871864143E-003
   95.6531250000000        -2.480997662704132E-003
   95.8668750000000        -3.031709193320649E-003
   96.0806250000000        -3.527888198355264E-003
   96.2943750000000        -3.953275770825106E-003
   96.5081250000000        -4.294377286167246E-003
   96.7218750000000        -4.540916022902798E-003
   96.9356250000000        -4.686100762309558E-003
   97.1493750000000        -4.726698991030498E-003
   97.3631250000000        -4.662920131892851E-003
   97.5768750000000        -4.498125603916927E-003
   97.7906250000000        -4.238393602208415E-003
   98.0043750000000        -3.891975519071268E-003
   98.2181250000000        -3.468687268635404E-003
   98.4318750000000        -2.979281985445491E-003
   98.6456250000000        -2.434850419379141E-003
   98.8593750000000        -1.846291858559041E-003
   99.0731250000000        -1.223891825889699E-003
   99.2868750000000        -5.770335818258955E-004
   99.5006250000000         8.594072170343373E-005
   99.7143750000000         7.577157570967230E-004
   99.9281250000000         1.431844791737435E-003
   100.141875000000         2.102468751229113E-003
   100.355625000000         2.763944383095630E-003
   100.569375000000         3.410421637214730E-003
   100.783125000000         4.035415796766703E-003
   100.996875000000         4.631421978890560E-003
   101.210625000000         5.189618158193912E-003
   101.424375000000         5.699697866282796E-003
   101.638125000000         6.149865439359475E-003
   101.851875000000         6.527015603865272E-003
   102.065625000000         6.817105978982814E-003
   102.279375000000         7.005716566211884E-003
   102.493125000000         7.078775425148075E-003
   102.706875000000         7.023415489050976E-003
   102.920625000000         6.828914829617916E-003
   103.134375000000         6.487662546660835E-003
   103.348125000000         5.996085615364576E-003
   103.561875000000         5.355469076572621E-003
   103.775625000000         4.572603289263492E-003
   103.989375000000         3.660197715462356E-003
   104.203125000000         2.637010746132225E-003
   104.416875000000         1.527659002367686E-003
   104.630625000000         3.620867032173070E-004
   104.844375000000        -8.253048060657103E-004
   105.058125000000        -1.996846497821615E-003
   105.271875000000        -3.113068372460814E-003
   105.485625000000        -4.134382103327546E-003
   105.699375000000        -5.022901139538714E-003
   105.913125000000        -5.744306320123763E-003
   106.126875000000        -6.269656288596709E-003
   106.340625000000        -6.577038746165545E-003
   106.554375000000        -6.652961355784135E-003
   106.768125000000        -6.493390083389646E-003
   106.981875000000        -6.104357739397249E-003
   107.195625000000        -5.502085884406168E-003
   107.409375000000        -4.712588143311884E-003
   107.623125000000        -3.770751055076886E-003
   107.836875000000        -2.718918327431568E-003
   108.050625000000        -1.605034035932296E-003
   108.264375000000        -4.804280882125866E-004
   108.478125000000         6.026486250083166E-004
   108.691875000000         1.593613198300816E-003
   108.905625000000         2.446125555038248E-003
   109.119375000000         3.120506623242959E-003
   109.333125000000         3.585861340488265E-003
   109.546875000000         3.821780442319455E-003
   109.760625000000         3.819515410302775E-003
   109.974375000000         3.582548362352263E-003
   110.188125000000         3.126511594553474E-003
   110.401875000000         2.478448062134920E-003
   110.615625000000         1.675442152869438E-003
   110.829375000000         7.626873321481670E-004
   111.043125000000        -2.089087116621941E-004
   111.256875000000        -1.185452115556919E-003
   111.470625000000        -2.112973370985199E-003
   111.684375000000        -2.940356956753852E-003
   111.898125000000        -3.622123712634222E-003
   112.111875000000        -4.120906610274631E-003
   112.325625000000        -4.409477289961442E-003
   112.539375000000        -4.472206195808261E-003
   112.753125000000        -4.305871844850989E-003
   112.966875000000        -3.919772718331724E-003
   113.180625000000        -3.335136130268052E-003
   113.394375000000        -2.583859680625448E-003
   113.608125000000        -1.706659983676730E-003
   113.821875000000        -7.507378648090372E-004
   114.035625000000         2.329029691916474E-004
   114.249375000000         1.192327334211094E-003
   114.463125000000         2.077563643836102E-003
   114.676875000000         2.843356318557254E-003
   114.890625000000         3.451619165139522E-003
   115.104375000000         3.873452512303122E-003
   115.318125000000         4.090613930234866E-003
   115.531875000000         4.096365543318761E-003
   115.745625000000         3.895658174510687E-003
   115.959375000000         3.504651539096939E-003
   116.173125000000         2.949608085799724E-003
   116.386875000000         2.265233604462433E-003
   116.600625000000         1.492568352728876E-003
   116.814375000000         6.765565107132582E-004
   117.028125000000        -1.365620008807585E-004
   117.241875000000        -9.018856705670040E-004
   117.455625000000        -1.578361046832776E-003
   117.669375000000        -2.131027189123061E-003
   117.883125000000        -2.532871795891689E-003
   118.096875000000        -2.766200105474785E-003
   118.310625000000        -2.823447014019800E-003
   118.524375000000        -2.707395580308930E-003
   118.738125000000        -2.430799296135796E-003
   118.951875000000        -2.015439266925899E-003
   119.165625000000        -1.490678915778485E-003
   119.379375000000        -8.916063037045021E-004
   119.593125000000        -2.568762095654937E-004
   119.806875000000         3.736203903017012E-004
   120.020625000000         9.611236174342571E-004
   120.234375000000         1.470272420382721E-003
   120.448125000000         1.871143498180372E-003
   120.661875000000         2.140946441094554E-003
   120.875625000000         2.265280701913374E-003
   121.089375000000         2.238885762340034E-003
   121.303125000000         2.065845330823329E-003
   121.516875000000         1.759237960451268E-003
   121.730625000000         1.340258351915159E-003
   121.944375000000         8.368640267395205E-004
   122.158125000000         2.820293091145167E-004
   122.371875000000        -2.882889056633797E-004
   122.585625000000        -8.373525890322542E-004
   122.799375000000        -1.329880667189630E-003
   123.013125000000        -1.734191217366394E-003
   123.226875000000        -2.024120963305032E-003
   123.440625000000        -2.180608423858787E-003
   123.654375000000        -2.192846936265328E-003
   123.868125000000        -2.058939222209257E-003