  -1.60312500000000         3.703811814384114E-024
  -1.38937500000000        -1.245805883421838E-022
  -1.17562500000000        -1.281363438304813E-021
 -0.961875000000000        -7.559203949657558E-021
 -0.748125000000000        -3.434156656305120E-020
 -0.534375000000000        -1.301917743165360E-019
 -0.320625000000000        -4.259247864083138E-019
 -0.106875000000000        -1.226956662823165E-018
  0.106875000000000        -3.161048437142961E-018
  0.320625000000000        -7.384176818127895E-018
  0.534375000000000        -1.583561340066297E-017
  0.748125000000000        -3.152290474890343E-017
  0.961875000000000        -5.880395112097120E-017
   1.17562500000000        -1.036224246308553E-016
   1.38937500000000        -1.736339900638843E-016
   1.60312500000000        -2.781699574942151E-016
   1.81687500000000        -4.279877852442609E-016
   2.03062500000000        -6.347837193161326E-016
   2.24437500000000        -9.104739567140057E-016
   2.45812500000000        -1.266294438492043E-015
   2.67187500000000        -1.711775530880251E-015
   2.88562500000000        -2.253745634300018E-015
   3.09937500000000        -2.895429832798383E-015
   3.31312500000000        -3.635809774798788E-015
   3.52687500000000        -4.469361505599453E-015
   3.74062500000000        -5.386166280111759E-015
   3.95437500000000        -6.372464509669897E-015
   4.16812500000000        -7.411568762328762E-015
   4.38187500000000        -8.485030609982019E-015
   4.59562500000000        -9.573875919556181E-015
   4.80937500000000        -1.065974996113107E-014
   5.02312500000000        -1.172583231781679E-014
   5.23687500000000        -1.275739447344054E-014
   5.45062500000000        -1.374199659379692E-014
   5.66437500000000        -1.466933115345947E-014
   5.87812500000000        -1.553090157276719E-014
   6.09187500000000        -1.631968817051941E-014
   6.30562500000000        -1.702996349914570E-014
   6.51937500000000        -1.765752572658941E-014
   6.73312500000000        -1.820032561869996E-014
   6.94687500000000        -1.865951596778076E-014
   7.16062500000000        -1.904075573921886E-014
   7.37437500000000        -1.935555048173428E-014
   7.58812500000000        -1.962228875402103E-014
   7.80187500000000        -1.986662022063606E-014
   8.01562500000000        -2.012094308703417E-014
   8.22937500000000        -2.042283126856890E-014
   8.44312500000000        -2.081247559154868E-014
   8.65687500000000        -2.132934168321017E-014
   8.87062500000000        -2.200849576169614E-014
   9.08437500000000        -2.287704592581977E-014
   9.29812500000000        -2.395129661676318E-014
   9.51187500000000        -2.523514298007664E-014
   9.72562500000000        -2.671994951730145E-014
   9.93937500000000        -2.838607997018172E-014
   10.1531250000000        -3.020590204308718E-014
   10.3668750000000        -3.214777860470139E-014
   10.5806250000000        -3.418050238070431E-014
   10.7943750000000        -3.627751892524849E-014
   11.0081250000000        -3.842020507014045E-014
   11.2218750000000        -4.059973463663280E-014
   11.4356250000000        -4.281730534496388E-014
   11.6493750000000        -4.508276967177034E-014
   11.8631250000000        -4.741195145354412E-014
   12.0768750000000        -4.982326771664140E-014
   12.2906250000000        -5.233433317914852E-014
   12.5043750000000        -5.495913099005090E-014
   12.7181250000000        -5.770637606587653E-014
   12.9318750000000        -6.057930858204561E-014
   13.1456250000000        -6.357688027321330E-014
   13.3593750000000        -6.669605763584440E-014
   13.5731250000000        -6.993466461668165E-014
   13.7868750000000        -7.329415800275403E-014
   14.0006250000000        -7.678164425608819E-014
   14.2143750000000        -8.041064043620783E-014
   14.4281250000000        -8.420038763472014E-014
   14.6418750000000        -8.817369547136864E-014
   14.8556250000000        -9.235368393823143E-014
   15.0693750000000        -9.676004300519031E-014
   15.2831250000000        -1.014054821607587E-013
   15.4968750000000        -1.062930081323031E-013
   15.7106250000000        -1.114146384702250E-013
   15.9243750000000        -1.167517725373669E-013
   16.1381250000000        -1.222771868285489E-013
   16.3518750000000        -1.279584307048884E-013
   16.5656250000000        -1.337619740166219E-013
   16.7793750000000        -1.396574113533605E-013
   16.9931250000000        -1.456210771230262E-013
   17.2068750000000        -1.516384598196201E-013
   17.4206250000000        -1.577050950906374E-013
   17.6343750000000        -1.638258427940478E-013
   17.8481250000000        -1.700126734480079E-013
   18.0618750000000        -1.762814649101091E-013
   18.2756250000000        -1.826483717159766E-013
   18.4893750000000        -1.891263037343057E-013
   18.7031250000000        -1.957221054938469E-013
   18.9168750000000        -2.024348373563832E-013
   19.1306250000000        -2.092553413498828E-013
   19.3443750000000        -2.161670755704230E-013
   19.5581250000000        -2.231480720288104E-013
   19.7718750000000        -2.301736758764164E-013
   19.9856250000000        -2.372196770491219E-013
   20.1993750000000        -2.442654613614029E-013
   20.4131250000000        -2.512968319824346E-013
   20.6268750000000        -2.583082295841985E-013
   20.8406250000000        -2.653041954361765E-013
   21.0543750000000        -2.722999594513554E-013
   21.2681250000000        -2.793211036889968E-013
   21.4818750000000        -2.864024270874057E-013
   21.6956250000000        -2.935860124421098E-013
   21.9093750000000        -3.009186232980753E-013
   22.1231250000000        -3.084486138864303E-013
   22.3368750000000        -3.162225768642477E-013
   22.5506250000000        -3.242819813270319E-013
   22.7643750000000        -3.326601106318376E-013
   22.9781250000000        -3.413796433161576E-013
   23.1918750000000        -3.504511177035576E-013
   23.4056250000000        -3.598725918913032E-013
   23.6193750000000        -3.696305451694730E-013
   23.8331250000000        -3.797019388052390E-013
   24.0468750000000        -3.900572925230812E-013
   24.2606250000000        -4.006643745604176E-013
   24.4743750000000        -4.114920152272906E-013
   24.6881250000000        -4.225135979095725E-013
   24.9018750000000        -4.337097052711944E-013
   25.1156250000000        -4.450696393127806E-013
   25.3293750000000        -4.565917145865155E-013
   25.5431250000000        -4.682823220489743E-013
   25.7568750000000        -4.801540918972563E-013
   25.9706250000000        -4.922236264490875E-013
   26.1843750000000        -5.045092283645584E-013
   26.3981250000000        -5.170291403822600E-013
   26.6118750000000        -5.298006634715509E-013
   26.8256250000000        -5.428402401564850E-013
   27.0393750000000        -5.561644357349211E-013
   27.2531250000000        -5.697915340764216E-013
   27.4668750000000        -5.837432453651757E-013
   27.6806250000000        -5.980459693871209E-013
   27.8943750000000        -6.127311421021860E-013
   28.1081250000000        -6.278343022502108E-013
   28.3218750000000        -6.433927389888914E-013
   28.5356250000000        -6.594418770698638E-013
   28.7493750000000        -6.760108074106756E-013
   28.9631250000000        -6.931176011691772E-013
   29.1768750000000        -7.107651985518656E-013
   29.3906250000000        -7.289385228298868E-013
   29.6043750000000        -7.476034442140096E-013
   29.8181250000000        -7.667080122382553E-013
   30.0318750000000        -7.861858952833756E-013
   30.2456250000000        -8.059617691158770E-013
   30.4593750000000        -8.259581201298223E-013
   30.6731250000000        -8.461025242529570E-013
   30.8868750000000        -8.663345713186182E-013
   31.1006250000000        -8.866114974034096E-013
   31.3143750000000        -9.069117742355043E-013
   31.5281250000000        -9.272362632990236E-013
   31.7418750000000        -9.476067280886853E-013
   31.9556250000000        -9.680619385280408E-013
   32.1693750000000        -9.886519555174461E-013
   32.3831250000000        -1.009431357348112E-012
   32.5968750000000        -1.030452297124066E-012
   32.8106250000000        -1.051758366559115E-012
   33.0243750000000        -1.073380031253194E-012
   33.2381250000000        -1.095332168588282E-012
   33.4518750000000        -1.117613971409028E-012
   33.6656250000000        -1.140211105786281E-012
   33.8793750000000        -1.163099706152895E-012
   34.0931250000000        -1.186251487582165E-012
   34.3068750000000        -1.209639199748621E-012
   34.5206250000000        -1.233241558973021E-012
   34.7343750000000        -1.257046896338450E-012
   34.9481250000000        -1.281055054934862E-012
   35.1618750000000        -1.305277308125161E-012
   35.3756250000000        -1.329734419658970E-012
   35.5893750000000        -1.354453327362757E-012
   35.8031250000000        -1.379463089852506E-012
   36.0168750000000        -1.404790888854647E-012
   36.2306250000000        -1.430458849247989E-012
   36.4443750000000        -1.456482278646165E-012
   36.6581250000000        -1.482869635599719E-012
   36.8718750000000        -1.509624176358503E-012
   37.0856250000000        -1.536746963715063E-012
   37.2993750000000        -1.564240539838408E-012
   37.5131250000000        -1.592112508562553E-012
   37.7268750000000        -1.620378175172187E-012
   37.9406250000000        -1.649061589861924E-012
   38.1543750000000        -1.678194703895345E-012
   38.3681250000000        -1.707814590477700E-012
   38.5818750000000        -1.737959192591092E-012
   38.7956250000000        -1.768662295860712E-012
   39.0093750000000        -1.799948675993659E-012
   39.2231250000000        -1.831830396660309E-012
   39.4368750000000        -1.864304948212223E-012
   39.6506250000000        -1.897355758793824E-012
   39.8643750000000        -1.930954930141747E-012
   40.0781250000000        -1.965067767338114E-012
   40.2918750000000        -1.999658291813523E-012
   40.5056250000000        -2.034694599950692E-012
   40.7193750000000        -2.070153059446072E-012
   40.9331250000000        -2.106020468414754E-012
   41.1468750000000        -2.142293896945374E-012
   41.3606250000000        -2.178978249644060E-012
   41.5743750000000        -2.216082296499093E-012
   41.7881250000000        -2.253614355811020E-012
   42.0018750000000        -2.291578806025981E-012
   42.2156250000000        -2.329974699542296E-012
   42.4293750000000        -2.368797302511882E-012
   42.6431250000000        -2.408042663469825E-012
   42.8568750000000        -2.447714516492295E-012
   43.0706250000000        -2.487832154277244E-012
   43.2843750000000        -2.528437253368980E-012
   43.4981250000000        -2.569597416619616E-012
   43.7118750000000        -2.611404425869178E-012
   43.9256250000000        -2.653965950684649E-012
   44.1393750000000        -2.697390497024771E-012
   44.3531250000000        -2.741766810497084E-012
   44.5668750000000        -2.787140412518600E-012
   44.7806250000000        -2.833491002035501E-012
   44.9943750000000        -2.880715278304158E-012
   45.2081250000000        -2.928619682016153E-012
   45.4218750000000        -2.976926721201625E-012
   45.6356250000000        -3.025296947483792E-012
   45.8493750000000        -3.073366322690153E-012
   46.0631250000000        -3.120796080129509E-012
   46.2768750000000        -3.167329547687147E-012
   46.4906250000000        -3.212848152653794E-012
   46.7043750000000        -3.257417509024609E-012
   46.9181250000000        -3.301314444781548E-012
   47.1318750000000        -3.345027105506423E-012
   47.3456250000000        -3.389223068775628E-012
   47.5593750000000        -3.434684483706500E-012
   47.7731250000000        -3.482214068632628E-012
   47.9868750000000        -3.532520896443237E-012
   48.2006250000000        -3.586099461101398E-012
   48.4143750000000        -3.643118816254935E-012
   48.6281250000000        -3.703339872921158E-012
   48.8418750000000        -3.766077847389712E-012
   49.0556250000000        -3.830223069879272E-012
   49.2693750000000        -3.894327016462554E-012
   49.4831250000000        -3.956752138527372E-012
   49.6968750000000        -4.015874496640265E-012
   49.9106250000000        -4.070319090092424E-012
   50.1243750000000        -4.119199624152783E-012
   50.3381250000000        -4.162329293354519E-012
   50.5518750000000        -4.200368132771875E-012
   50.7656250000000        -4.234875730990308E-012
   50.9793750000000        -4.268246706105603E-012
   51.1931250000000        -4.303519239785869E-012
   51.4068750000000        -4.344063229434476E-012
   51.6206250000000        -4.393172506190943E-012
   51.8343750000000        -4.453602712763415E-012
   52.0481250000000        -4.527110376805631E-012
   52.2618750000000        -4.614057037513891E-012
   52.4756250000000        -4.713142824363660E-012
   52.6893750000000        -4.821325694110887E-012
   52.9031250000000        -4.933965403798820E-012
   53.1168750000000        -5.045205951197665E-012
   53.3306250000000        -5.148579634535618E-012
   53.5443750000000        -5.237783075019981E-012
   53.7581250000000        -5.307544854060399E-012
   53.9718750000000        -5.354480472826498E-012
   54.1856250000000        -5.377817234905007E-012
   54.3993750000000        -5.379872932680603E-012
   54.6131250000000        -5.366189320960424E-012
   54.8268750000000        -5.345254415245090E-012
   55.0406250000000        -5.327794090653060E-012
   55.2543750000000        -5.325668816237717E-012
   55.4681250000000        -5.350469298565977E-012
   55.6818750000000        -5.411957620878024E-012
   55.8956250000000        -5.516540560747621E-012
   56.1093750000000        -5.665981890265148E-012
   56.3231250000000        -5.856555475958635E-012
   56.5368750000000        -6.078808237512628E-012
   56.7506250000000        -6.318042647048887E-012
   56.9643750000000        -6.555546858989608E-012
   57.1781250000000        -6.770505255730690E-012
   57.3918750000000        -6.942423913141851E-012
   57.6056250000000        -7.053817198145888E-012
   57.8193750000000        -7.092836607222942E-012
   58.0331250000000        -7.055491731508105E-012
   58.2468750000000        -6.947124870332433E-012
   58.4606250000000        -6.782858238572545E-012
   58.6743750000000        -6.586833751299873E-012
   58.8881250000000        -6.390201851856419E-012
   59.1018750000000        -6.227973540785780E-012
   59.3156250000000        -6.135010583640620E-012
   59.5293750000000        -6.141571886207102E-012
   59.7431250000000        -6.268938637831754E-012
   59.9568750000000        -6.525688949873415E-012
   60.1706250000000        -6.905172032337445E-012
   60.3843750000000        -7.384637766891999E-012
   60.5981250000000        -7.926314107960284E-012
   60.8118750000000        -8.480506087256459E-012
   61.0256250000000        -8.990538705408687E-012
   61.2393750000000        -9.399111162516190E-012
   61.4531250000000        -9.655404022630678E-012
   61.6668750000000        -9.722116499376952E-012
   61.8806250000000        -9.581535441924204E-012
   62.0943750000000        -9.239769495952363E-012
   62.3081250000000        -8.728428336927453E-012
   62.5218750000000        -8.103279828650287E-012
   62.7356250000000        -7.439755835187984E-012
   62.9493750000000        -6.825565098890214E-012
   63.1631250000000        -6.351063670331565E-012
   63.3768750000000        -6.098380417886969E-012
   63.5906250000000        -6.130547779748885E-012
   63.8043750000000        -6.482004846942511E-012
   64.0181250000000        -7.151793162093252E-012
   64.2318750000000        -8.100545700063693E-012
   64.4456250000000        -9.251988294336304E-012
   64.6593750000000        -1.049916416277122E-011
   64.8731250000000        -1.171500994483157E-011
   65.0868750000000        -1.276632346712097E-011
   65.3006250000000        -1.352964492562775E-011
   65.5143750000000        -1.390719788875934E-011
   65.7281250000000        -1.384086579671622E-011
   65.9418750000000        -1.332225514983694E-011
   66.1556250000000        -1.239723147638700E-011
   66.3693750000000        -1.116388883974788E-011
   66.5831250000000        -9.763676676701140E-012
   66.7968750000000        -8.366276735875138E-012
   67.0106250000000        -7.149694854573986E-012
   67.2243750000000        -6.277793696980562E-012
   67.4381250000000        -5.878032187423442E-012
   67.6518750000000        -6.022403548451329E-012
   67.8656250000000        -6.714415184288357E-012
   68.0793750000000        -7.884412624513464E-012
   68.2931250000000        -9.394647717238955E-012
   68.5068750000000        -1.105431005519995E-011
   68.7206250000000        -1.264340764237561E-011
   68.9343750000000        -1.394305748384554E-011
   69.1481250000000        -1.476860534526774E-011
   69.3618750000000        -1.500120698831011E-011
   69.5756250000000        -1.461321376714496E-011
   69.7893750000000        -1.368300718408779E-011
   70.0031250000000        -1.239584761805813E-011
   70.2168750000000        -1.102879241634130E-011
   70.4306250000000        -9.919669414102991E-012
   70.6443750000000        -9.422264468217440E-012
   70.8581250000000        -9.852042960213335E-012
   71.0718750000000        -1.142859528557297E-011
   71.2856250000000        -1.422230007171745E-011
   71.4993750000000        -1.811320121021924E-011
   71.7131250000000        -2.276963420582703E-011
   71.9268750000000        -2.765265334176718E-011
   72.1406250000000        -3.204986361274256E-011
   72.3543750000000        -3.513903488372614E-011
   72.5681250000000        -3.607817047010675E-011
   72.7818750000000        -3.411491086763273E-011
   72.9956250000000        -2.870472207994780E-011
   73.2093750000000        -1.962470015981392E-011
   73.4231250000000        -7.068426109047599E-012
   73.6368750000000         8.292563137625143E-012
   73.8506250000000         2.529329670175576E-011
   74.0643750000000         4.231498716587936E-011
   74.2781250000000         5.738386238502060E-011
   74.4918750000000         6.832726163498060E-011
   74.7056250000000         7.297844288912628E-011
   74.9193750000000         6.941507464161592E-011
   75.1331250000000         5.621075639121392E-011
   75.3468750000000         3.267481609343926E-011
   75.5606250000000        -9.463400915745344E-013
   75.7743750000000        -4.333248110668445E-011
   75.9881250000000        -9.204026136085749E-011
   76.2018750000000        -1.435582818044855E-010
   76.4156250000000        -1.934751247154254E-010
   76.6293750000000        -2.367590112266733E-010
   76.8431250000000        -2.681368729891747E-010
   77.0568750000000        -2.825498537723799E-010
   77.2706250000000        -2.756525867662269E-010
   77.4843750000000        -2.443160170236730E-010
   77.6981250000000        -1.870889124956952E-010
   77.9118750000000        -1.045721700386544E-010
   78.1256250000000         3.370712742874303E-013
   78.3393750000000         1.223676216991859E-010
   78.5531250000000         2.539883200445140E-010
   78.7668750000000         3.857260407072138E-010
   78.9806250000000         5.066840329363456E-010
   79.1943750000000         6.052403999750068E-010
   79.4081250000000         6.698902243874311E-010
   79.6218750000000         6.901801242856388E-010
   79.8356250000000         6.576720995360984E-010
   80.0493750000000         5.668654542798916E-010
   80.2631250000000         4.160021810439745E-010
   80.4768750000000         2.076829858548445E-010
   80.6906250000000        -5.077168884550860E-011
   80.9043750000000        -3.472688896111130E-010
   81.1181250000000        -6.652347655553482E-010
   81.3318750000000        -9.842657285034232E-010
   81.5456250000000        -1.281130580140878E-009
   81.7593750000000        -1.531089880243683E-009
   81.9731250000000        -1.709473790322219E-009
   82.1868750000000        -1.793436302230347E-009
   82.4006250000000        -1.763783772238883E-009
   82.6143750000000        -1.606760575588421E-009
   82.8281250000000        -1.315665860672844E-009
   83.0418750000000        -8.921739466058416E-010
   83.2556250000000        -3.472376609266531E-010
   83.4693750000000         2.985307825113100E-010
   83.6831250000000         1.015083047929046E-009
   83.8968750000000         1.763812316732671E-009
   84.1106250000000         2.499097603463080E-009
   84.3243750000000         3.170484450121538E-009
   84.5381250000000         3.725426745187584E-009
   84.7518750000000         4.112469829652892E-009
   84.9656250000000         4.284713836183093E-009
   85.1793750000000         4.203361450315769E-009
   85.3931250000000         3.841128961469433E-009
   85.6068750000000         3.185286226739730E-009
   85.8206250000000         2.240092080835633E-009
   86.0343750000000         1.028408101758056E-009
   86.2481250000000        -4.076941440413775E-010
   86.4618750000000        -2.007469884088793E-009
   86.6756250000000        -3.693258718654523E-009
   86.8893750000000        -5.373468519163180E-009
   87.1031250000000        -6.946713244686248E-009
   87.3168750000000        -8.306952274959397E-009
   87.5306250000000        -9.349401908995806E-009
   87.7443750000000        -9.976921112969160E-009
   87.9581250000000        -1.010651861071221E-008
   88.1718750000000        -9.675591684325075E-009
   88.3856250000000        -8.647492425297820E-009
   88.5993750000000        -7.016027309508631E-009
   88.8131250000000        -4.808532089456226E-009
   89.0268750000000        -2.087225712649764E-009
   89.2406250000000         1.051367820097915E-009
   89.4543750000000         4.479035858457213E-009
   89.6681250000000         8.040518802557437E-009
   89.8818750000000         1.156003743407960E-008
   90.0956250000000         1.484943975697060E-008
   90.3093750000000         1.771758337778426E-008
   90.5231250000000         1.998046866193505E-008
   90.7368750000000         2.147156213122266E-008
   90.9506250000000         2.205170571732006E-008
   91.1643750000000         2.161800081150961E-008
   91.3781250000000         2.011108964187756E-008
   91.5918750000000         1.752033086505806E-008
   91.8056250000000         1.388647900803695E-008
   92.0193750000000         9.301623191200540E-009
   92.2331250000000         3.906311205382545E-009
   92.4468750000000        -2.116030207427069E-009
   92.6606250000000        -8.547081737234688E-009
   92.8743750000000        -1.514355337787139E-008
   93.0881250000000        -2.164842268619309E-008
   93.3018750000000        -2.780276142309269E-008
   93.5156250000000        -3.335736349225588E-008
   93.7293750000000        -3.808338546682452E-008
   93.9431250000000        -4.178127036859972E-008
   94.1568750000000        -4.428734456723487E-008
   94.3706250000000        -4.547765051744440E-008
   94.5843750000000        -4.526879349023365E-008
   94.7981250000000        -4.361582310532295E-008
   95.0118750000000        -4.050742165007444E-008
   95.2256250000000        -3.595891025109106E-008
   95.4393750000000        -3.000379004365646E-008
   95.6531250000000        -2.268468917843786E-008
   95.8668750000000        -1.404467174900285E-008
   96.0806250000000        -4.119870388249434E-009
   96.2943750000000         7.065674552571794E-009
   96.5081250000000         1.950224757321452E-008
   96.7218750000000         3.319327502328587E-008
   96.9356250000000         4.815053057237690E-008
   97.1493750000000         6.438585973775335E-008
   97.3631250000000         8.189988984855429E-008
   97.5768750000000         1.006685088807117E-007
   97.7906250000000         1.206281672080653E-007
   98.0043750000000         1.416612554466768E-007
   98.2181250000000         1.635829190956626E-007
   98.4318750000000         1.861306732624940E-007
   98.6456250000000         2.089580732008157E-007
   98.8593750000000         2.316334822845528E-007
   99.0731250000000         2.536446707287861E-007
   99.2868750000000         2.744095961044337E-007
   99.5006250000000         2.932932871653082E-007
   99.7143750000000         3.096303067796719E-007
   99.9281250000000         3.227518408561688E-007
   100.141875000000         3.320160804585266E-007
   100.355625000000         3.368402630137290E-007
   100.569375000000         3.367325393703853E-007
   100.783125000000         3.313217529004091E-007
   100.996875000000         3.203832627673337E-007
   101.210625000000         3.038591147256275E-007
   101.424375000000         2.818711492389912E-007
   101.638125000000         2.547260200601423E-007
   101.851875000000         2.229115517376551E-007
   102.065625000000         1.870843620097339E-007
   102.279375000000         1.480491822526106E-007
   102.493125000000         1.067307932626742E-007
   102.706875000000         6.413992376595612E-008
   102.920625000000         2.133480822896691E-008
   103.134375000000        -2.061965246413357E-008
   103.348125000000        -6.069305340621817E-008
   103.561875000000        -9.792888966181768E-008
   103.775625000000        -1.314802347228161E-007
   103.989375000000        -1.606399533864794E-007
   104.203125000000        -1.848640330637337E-007
   104.416875000000        -2.037870170515226E-007
   104.630625000000        -2.172289727133543E-007
   104.844375000000        -2.251938988110514E-007
   105.058125000000        -2.278599408438718E-007
   105.271875000000        -2.255622138246444E-007
   105.485625000000        -2.187694039864953E-007
   105.699375000000        -2.080556143123698E-007
   105.913125000000        -1.940691187806096E-007
   106.126875000000        -1.774997882491269E-007
   106.340625000000        -1.590469448567129E-007
   106.554375000000        -1.393892959676787E-007
   106.768125000000        -1.191584031466845E-007
   106.981875000000        -9.891687153502356E-008
   107.195625000000        -7.914211925624561E-008
   107.409375000000        -6.021622654600722E-008
   107.623125000000        -4.242199266441110E-008
   107.836875000000        -2.594496740755312E-008
   108.050625000000        -1.088089357568509E-008
   108.264375000000         2.752285380369468E-009
   108.478125000000         1.499891830436702E-008
   108.691875000000         2.594785396557162E-008
   108.905625000000         3.571364916945626E-008
   109.119375000000         4.441805779291868E-008
   109.333125000000         5.217300260637424E-008
   109.546875000000         5.906608747839451E-008
   109.760625000000         6.514950823352708E-008
   109.974375000000         7.043297900475079E-008
   110.188125000000         7.488102189295897E-008
   110.401875000000         7.841468639922550E-008
   110.615625000000         8.091748676685903E-008
   110.829375000000         8.224508478520012E-008
   111.043125000000         8.223801628159436E-008
   111.256875000000         8.073657324155748E-008
   111.470625000000         7.759681982548423E-008
   111.684375000000         7.270664646288174E-008
   111.898125000000         6.600075573416232E-008
   112.111875000000         5.747352774204497E-008
   112.325625000000         4.718882865304911E-008
   112.539375000000         3.528599825252908E-008
   112.753125000000         2.198147173773132E-008
   112.966875000000         7.565745791417981E-009
   113.180625000000        -7.604324823205097E-009
   113.394375000000        -2.311763193615521E-008
   113.608125000000        -3.852478024833629E-008
   113.821875000000        -5.335713060238792E-008
   114.035625000000        -6.714793189637962E-008
   114.249375000000        -7.945440321690494E-008
   114.463125000000        -8.987954076835018E-008
   114.676875000000        -9.809240599543655E-008
   114.890625000000        -1.038457036801969E-007
   115.104375000000        -1.069895794192091E-007
   115.318125000000        -1.074807485870779E-007
   115.531875000000        -1.053863041351025E-007
   115.745625000000        -1.008818261211760E-007
   115.959375000000        -9.424371755564759E-008
   116.173125000000        -8.583600370885715E-008
   116.386875000000        -7.609213986018117E-008
   116.600625000000        -6.549266033301544E-008
   116.814375000000        -5.453975523069222E-008
   117.028125000000        -4.373006759342667E-008
   117.241875000000        -3.352715145222757E-008
   117.455625000000        -2.433511114535015E-008
   117.669375000000        -1.647494720874573E-008
   117.883125000000        -1.016505963196370E-008
   118.096875000000        -5.507203704925830E-009
   118.310625000000        -2.478958882964932E-009
   118.524375000000        -9.334627577717110E-010
   118.738125000000        -6.067903426304374E-010
   118.951875000000        -1.132938062352978E-009
   119.165625000000        -2.065921303214366E-009
   119.379375000000        -2.908037611611809E-009
   119.593125000000        -3.142911560812463E-009
   119.806875000000        -2.271550983960738E-009
   120.020625000000         1.506629346965603E-010
   120.234375000000         4.478329817396872E-009
   120.448125000000         1.094407739558185E-008
   120.661875000000         1.963257534400574E-008
   120.875625000000         3.046255961176895E-008
   121.089375000000         4.317853080536575E-008
   121.303125000000         5.735327312636240E-008
   121.516875000000         7.240171240525835E-008
   121.730625000000         8.760592895153978E-008
   121.944375000000         1.021504075254038E-007
   122.158125000000         1.151658922255512E-007
   122.371875000000         1.257795695410731E-007
   122.585625000000         1.331687768413700E-007
   122.799375000000         1.366150683176064E-007
   123.013125000000         1.355552978988172E-007
   123.226875000000         1.296264180425440E-007
   123.440625000000         1.187009488342192E-007
   123.654375000000         1.029105323768222E-007
   123.868125000000         8.265562708358313E-008