  -1.60312500000000        -9.720568494482559E-018
  -1.38937500000000        -9.711147711407450E-018
  -1.17562500000000        -9.443929694631178E-018
 -0.961875000000000        -7.565702140477317E-018
 -0.748125000000000         1.394788291705603E-018
 -0.534375000000000         3.540894900273587E-017
 -0.320625000000000         1.422413803332022E-016
 -0.106875000000000         4.220812884966742E-016
  0.106875000000000         1.027685271681097E-015
  0.320625000000000         2.073770126071039E-015
  0.534375000000000         3.339393801041590E-015
  0.748125000000000         3.628732204051054E-015
  0.961875000000000        -3.291794147297115E-016
   1.17562500000000        -1.550738558727348E-014
   1.38937500000000        -5.473703345292846E-014
   1.60312500000000        -1.393190695559902E-013
   1.81687500000000        -3.019894666741657E-013
   2.03062500000000        -5.899982452728552E-013
   2.24437500000000        -1.068089840936414E-012
   2.45812500000000        -1.821019708754187E-012
   2.67187500000000        -2.955356114753113E-012
   2.88562500000000        -4.600127111446052E-012
   3.09937500000000        -6.906287517117793E-012
   3.31312500000000        -1.004456554847115E-011
   3.52687500000000        -1.420200257313865E-011
   3.74062500000000        -1.957713703964676E-011
   3.95437500000000        -2.637419388154413E-011
   4.16812500000000        -3.479672649038629E-011
   4.38187500000000        -4.504116069604093E-011
   4.59562500000000        -5.729085464197548E-011
   4.80937500000000        -7.171096400525440E-011
   5.02312500000000        -8.844461159086257E-011
   5.23687500000000        -1.076105183095529E-010
   5.45062500000000        -1.293021263480850E-010
   5.66437500000000        -1.535881583554261E-010
   5.87812500000000        -1.805142316305620E-010
   6.09187500000000        -2.101054757298472E-010
   6.30562500000000        -2.423695570047655E-010
   6.51937500000000        -2.772999929898417E-010
   6.73312500000000        -3.148795853066225E-010
   6.94687500000000        -3.550836532174260E-010
   7.16062500000000        -3.978832678784490E-010
   7.37437500000000        -4.432481911318505E-010
   7.58812500000000        -4.911498900069138E-010
   7.80187500000000        -5.415642418775813E-010
   8.01562500000000        -5.944740531959220E-010
   8.22937500000000        -6.498709934203894E-010
   8.44312500000000        -7.077568531856321E-010
   8.65687500000000        -7.681436595663127E-010
   8.87062500000000        -8.310525416015938E-010
   9.08437500000000        -8.965112050696179E-010
   9.29812500000000        -9.645499165994555E-010
   9.51187500000000        -1.035196416835120E-009
   9.72562500000000        -1.108470158029667E-009
   9.93937500000000        -1.184376510285797E-009
   10.1531250000000        -1.262901791227304E-009
   10.3668750000000        -1.344009734881501E-009
   10.5806250000000        -1.427640014652203E-009
   10.7943750000000        -1.513709209362092E-009
   11.0081250000000        -1.602114370467556E-009
   11.2218750000000        -1.692738693238033E-009
   11.4356250000000        -1.785458903724709E-009
   11.6493750000000        -1.880153426652722E-009
   11.8631250000000        -1.976710548433087E-009
   12.0768750000000        -2.075035470737360E-009
   12.2906250000000        -2.175055808455602E-009
   12.5043750000000        -2.276724836241815E-009
   12.7181250000000        -2.380022467891691E-009
   12.9318750000000        -2.484954095589434E-009
   13.1456250000000        -2.591547734816132E-009
   13.3593750000000        -2.699850049172595E-009
   13.5731250000000        -2.809921912897101E-009
   13.7868750000000        -2.921833998712900E-009
   14.0006250000000        -3.035662914130648E-009
   14.2143750000000        -3.151487943013882E-009
   14.4281250000000        -3.269388510951714E-009
   14.6418750000000        -3.389442133828900E-009
   14.8556250000000        -3.511722664099302E-009
   15.0693750000000        -3.636298598497500E-009
   15.2831250000000        -3.763231427944434E-009
   15.4968750000000        -3.892574078481747E-009
   15.7106250000000        -4.024369671693849E-009
   15.9243750000000        -4.158651171253668E-009
   16.1381250000000        -4.295442157791231E-009
   16.3518750000000        -4.434759321150746E-009
   16.5656250000000        -4.576616884803818E-009
   16.7793750000000        -4.721032879763024E-009
   16.9931250000000        -4.868036885879308E-009
   17.2068750000000        -5.017678484987147E-009
   17.4206250000000        -5.170035460740309E-009
   17.6343750000000        -5.325220608868258E-009
   17.8481250000000        -5.483385960426732E-009
   18.0618750000000        -5.644723382873230E-009
   18.2756250000000        -5.809461081945711E-009
   18.4893750000000        -5.977855832584722E-009
   18.7031250000000        -6.150181341844777E-009
   18.9168750000000        -6.326713709081618E-009
   19.1306250000000        -6.507715492654297E-009
   19.3443750000000        -6.693419947779326E-009
   19.5581250000000        -6.884017227090331E-009
   19.7718750000000        -7.079644255199977E-009
   19.9856250000000        -7.280379280645872E-009
   20.1993750000000        -7.486242014078372E-009
   20.4131250000000        -7.697199190366383E-009
   20.6268750000000        -7.913175099033974E-009
   20.8406250000000        -8.134065784993830E-009
   21.0543750000000        -8.359755457031335E-009
   21.2681250000000        -8.590133147142036E-009
   21.4818750000000        -8.825107958216077E-009
   21.6956250000000        -9.064621440526960E-009
   21.9093750000000        -9.308655890728859E-009
   22.1231250000000        -9.557238196508964E-009
   22.3368750000000        -9.810439169145418E-009
   22.5506250000000        -1.006836912430341E-008
   22.7643750000000        -1.033117051928102E-008
   22.9781250000000        -1.059900908219001E-008
   23.1918750000000        -1.087206453581875E-008
   23.4056250000000        -1.115052199314382E-008
   23.6193750000000        -1.143456496643838E-008
   23.8331250000000        -1.172437020437446E-008
   24.0468750000000        -1.202010434696684E-008
   24.2606250000000        -1.232192212771929E-008
   24.4743750000000        -1.262996546748689E-008
   24.6881250000000        -1.294436280972415E-008
   24.9018750000000        -1.326522828126808E-008
   25.1156250000000        -1.359266012494454E-008
   25.3293750000000        -1.392673861696244E-008
   25.5431250000000        -1.426752365606918E-008
   25.7568750000000        -1.461505257007291E-008
   25.9706250000000        -1.496933884526392E-008
   26.1843750000000        -1.533037257915127E-008
   26.3981250000000        -1.569812297056694E-008
   26.6118750000000        -1.607254343013190E-008
   26.8256250000000        -1.645357898634457E-008
   27.0393750000000        -1.684117560122028E-008
   27.2531250000000        -1.723529053868453E-008
   27.4668750000000        -1.763590284737037E-008
   27.6806250000000        -1.804302259890824E-008
   27.8943750000000        -1.845669795304538E-008
   28.1081250000000        -1.887701910776185E-008
   28.3218750000000        -1.930411858942286E-008
   28.5356250000000        -1.973816767184880E-008
   28.7493750000000        -2.017936927979071E-008
   28.9631250000000        -2.062794786033327E-008
   29.1768750000000        -2.108413723575775E-008
   29.3906250000000        -2.154816759728371E-008
   29.6043750000000        -2.202025266948576E-008
   29.8181250000000        -2.250057832749016E-008
   30.0318750000000        -2.298929366188049E-008
   30.2456250000000        -2.348650512667960E-008
   30.4593750000000        -2.399227436371231E-008
   30.6731250000000        -2.450661989428035E-008
   30.8868750000000        -2.502952229074964E-008
   31.1006250000000        -2.556093259784719E-008
   31.3143750000000        -2.610078287422420E-008
   31.5281250000000        -2.664899799804713E-008
   31.7418750000000        -2.720550750922569E-008
   31.9556250000000        -2.777025622959700E-008
   32.1693750000000        -2.834321254079938E-008
   32.3831250000000        -2.892437358431420E-008
   32.5968750000000        -2.951376679480092E-008
   32.8106250000000        -3.011144783464654E-008
   33.0243750000000        -3.071749545658822E-008
   33.2381250000000        -3.133200417937095E-008
   33.4518750000000        -3.195507611145859E-008
   33.6656250000000        -3.258681333996993E-008
   33.8793750000000        -3.322731223305277E-008
   34.0931250000000        -3.387666073185158E-008
   34.3068750000000        -3.453493907921332E-008
   34.5206250000000        -3.520222412911804E-008
   34.7343750000000        -3.587859630940433E-008
   34.9481250000000        -3.656414822244774E-008
   35.1618750000000        -3.725899324992524E-008
   35.3756250000000        -3.796327267961470E-008
   35.5893750000000        -3.867715990840300E-008
   35.8031250000000        -3.940086110663622E-008
   36.0168750000000        -4.013461204182198E-008
   36.2306250000000        -4.087867182242404E-008
   36.4443750000000        -4.163331458874576E-008
   36.6581250000000        -4.239882092430159E-008
   36.8718750000000        -4.317547046000946E-008
   37.0856250000000        -4.396353711877815E-008
   37.2993750000000        -4.476328769292458E-008
   37.5131250000000        -4.557498364529350E-008
   37.7268750000000        -4.639888546375796E-008
   37.9406250000000        -4.723525784663017E-008
   38.1543750000000        -4.808437397524905E-008
   38.3681250000000        -4.894651717482666E-008
   38.5818750000000        -4.982197848140590E-008
   38.7956250000000        -5.071104991674160E-008
   39.0093750000000        -5.161401372233435E-008
   39.2231250000000        -5.253112938559957E-008
   39.4368750000000        -5.346262063149621E-008
   39.6506250000000        -5.440866503447518E-008
   39.8643750000000        -5.536938886491851E-008
   40.0781250000000        -5.634486846623538E-008
   40.2918750000000        -5.733513897785641E-008
   40.5056250000000        -5.834020921196213E-008
   40.7193750000000        -5.936008049324196E-008
   40.9331250000000        -6.039476612650350E-008
   41.1468750000000        -6.144430775435483E-008
   41.3606250000000        -6.250878551204825E-008
   41.5743750000000        -6.358831941431177E-008
   41.7881250000000        -6.468306180083787E-008
   42.0018750000000        -6.579318199923814E-008
   42.2156250000000        -6.691884657023130E-008
   42.4293750000000        -6.806019976912373E-008
   42.6431250000000        -6.921734931805585E-008
   42.8568750000000        -7.039036208228277E-008
   43.0706250000000        -7.157927242860583E-008
   43.2843750000000        -7.278410382948400E-008
   43.4981250000000        -7.400490099568957E-008
   43.7118750000000        -7.524176707702259E-008
   43.9256250000000        -7.649489805584380E-008
   44.1393750000000        -7.776460566371259E-008
   44.3531250000000        -7.905132027846479E-008
   44.5668750000000        -8.035556802865783E-008
   44.7806250000000        -8.167791983267963E-008
   44.9943750000000        -8.301891522320051E-008
   45.2081250000000        -8.437896921621062E-008
   45.4218750000000        -8.575827524651680E-008
   45.6356250000000        -8.715672070996963E-008
   45.8493750000000        -8.857383272674594E-008
   46.0631250000000        -9.000877016579429E-008
   46.2768750000000        -9.146037329495808E-008
   46.4906250000000        -9.292727520283261E-008
   46.7043750000000        -9.440806983961785E-008
   46.9181250000000        -9.590152150596514E-008
   47.1318750000000        -9.740679150432988E-008
   47.3456250000000        -9.892365039413446E-008
   47.5593750000000        -1.004526409799826E-007
   47.7731250000000        -1.019951585497990E-007
   47.9868750000000        -1.035534212416045E-007
   48.2006250000000        -1.051303154086296E-007
   48.4143750000000        -1.067291164001552E-007
   48.6281250000000        -1.083531038018514E-007
   48.8418750000000        -1.100051085903508E-007
   49.0556250000000        -1.116870460180202E-007
   49.2693750000000        -1.133994991503703E-007
   49.4831250000000        -1.151414215986842E-007
   49.6968750000000        -1.169100226757153E-007
   49.9106250000000        -1.187008824859236E-007
   50.1243750000000        -1.205083206407536E-007
   50.3381250000000        -1.223260096019725E-007
   50.5518750000000        -1.241477885044378E-007
   50.7656250000000        -1.259685975678018E-007
   50.9793750000000        -1.277854230295204E-007
   51.1931250000000        -1.295981230742052E-007
   51.4068750000000        -1.314100000149551E-007
   51.6206250000000        -1.332279969599102E-007
   51.8343750000000        -1.350624289246747E-007
   52.0481250000000        -1.369262074939982E-007
   52.2618750000000        -1.388335809987625E-007
   52.4756250000000        -1.407984820630009E-007
   52.6893750000000        -1.428326425415277E-007
   52.9031250000000        -1.449436935194765E-007
   53.1168750000000        -1.471335048800731E-007
   53.3306250000000        -1.493970267714978E-007
   53.5443750000000        -1.517218692898082E-007
   53.7581250000000        -1.540887940419039E-007
   53.9718750000000        -1.564731959474755E-007
   54.1856250000000        -1.588475326987597E-007
   54.3993750000000        -1.611845257602144E-007
   54.6131250000000        -1.634608267762416E-007
   54.8268750000000        -1.656607343837717E-007
   55.0406250000000        -1.677794770571914E-007
   55.2543750000000        -1.698255621998175E-007
   55.4681250000000        -1.718217409217923E-007
   55.6818750000000        -1.738042540879618E-007
   55.8956250000000        -1.758202026033867E-007
   56.1093750000000        -1.779231088546427E-007
   56.3231250000000        -1.801669833506269E-007
   56.5368750000000        -1.825994518893850E-007
   56.7506250000000        -1.852547006405830E-007
   56.9643750000000        -1.881471285881920E-007
   57.1781250000000        -1.912666298076149E-007
   57.3918750000000        -1.945763469522492E-007
   57.6056250000000        -1.980135339736633E-007
   57.8193750000000        -2.014938535560945E-007
   58.0331250000000        -2.049190370776649E-007
   58.2468750000000        -2.081873929142154E-007
   58.4606250000000        -2.112062143481714E-007
   58.6743750000000        -2.139047675462746E-007
   58.8881250000000        -2.162462894397807E-007
   59.1018750000000        -2.182373422779663E-007
   59.3156250000000        -2.199329881838161E-007
   59.5293750000000        -2.214365737101388E-007
   59.7431250000000        -2.228934360150344E-007
   59.9568750000000        -2.244785174095392E-007
   60.1706250000000        -2.263786366917972E-007
   60.3843750000000        -2.287709294304966E-007
   60.5981250000000        -2.317996387934500E-007
   60.8118750000000        -2.355539190036192E-007
   61.0256250000000        -2.400495219567645E-007
   61.2393750000000        -2.452171154534102E-007
   61.4531250000000        -2.508995058250067E-007
   61.6668750000000        -2.568592242592214E-007
   61.8806250000000        -2.627968477077008E-007
   62.0943750000000        -2.683791618329249E-007
   62.3081250000000        -2.732749713765728E-007
   62.5218750000000        -2.771951762261640E-007
   62.7356250000000        -2.799328166858895E-007
   62.9493750000000        -2.813982906253202E-007
   63.1631250000000        -2.816449643144850E-007
   63.3768750000000        -2.808809921642649E-007
   63.5906250000000        -2.794643200921638E-007
   63.8043750000000        -2.778794935329540E-007
   64.0181250000000        -2.766968812627401E-007
   64.2318750000000        -2.765170584299038E-007
   64.4456250000000        -2.779051303812252E-007
   64.6593750000000        -2.813214713506249E-007
   64.8731250000000        -2.870564666136215E-007
   65.0868750000000        -2.951771937326888E-007
   65.3006250000000        -3.054934420326115E-007
   65.5143750000000        -3.175490257035927E-007
   65.7281250000000        -3.306420754230777E-007
   65.9418750000000        -3.438750783335408E-007
   66.1556250000000        -3.562321538067588E-007
   66.3693750000000        -3.666777426822184E-007
   66.5831250000000        -3.742679271789245E-007
   66.7968750000000        -3.782633543549476E-007
   67.0106250000000        -3.782315232014848E-007
   67.2243750000000        -3.741262399076066E-007
   67.4381250000000        -3.663334461412354E-007
   67.6518750000000        -3.556753348193757E-007
   67.8656250000000        -3.433684905057340E-007
   68.0793750000000        -3.309363872135269E-007
   68.2931250000000        -3.200814992977041E-007
   68.5068750000000        -3.125270110688182E-007
   68.7206250000000        -3.098421203881960E-007
   68.9343750000000        -3.132677335827621E-007
   69.1481250000000        -3.235605621838019E-007
   69.3618750000000        -3.408730245156801E-007
   69.5756250000000        -3.646838829565664E-007
   69.7893750000000        -3.937903653856822E-007
   70.0031250000000        -4.263669761041299E-007
   70.2168750000000        -4.600898096995978E-007
   70.4306250000000        -4.923185664678733E-007
   70.6443750000000        -5.203223058576389E-007
   70.8581250000000        -5.415299172989431E-007
   71.0718750000000        -5.537828936208494E-007
   71.2856250000000        -5.555666607409189E-007
   71.4993750000000        -5.461976439830840E-007
   71.7131250000000        -5.259464028804049E-007
   71.9268750000000        -4.960822813713615E-007
   72.1406250000000        -4.588316356987872E-007
   72.3543750000000        -4.172492051418798E-007
   72.5681250000000        -3.750098790316599E-007
   72.7818750000000        -3.361352769717064E-007
   72.9956250000000        -3.046755477372091E-007
   73.2093750000000        -2.843710854191530E-007
   73.4231250000000        -2.783211127506913E-007
   73.6368750000000        -2.886861461179832E-007
   73.8506250000000        -3.164492910924450E-007
   74.0643750000000        -3.612573570742649E-007
   74.2781250000000        -4.213572994430873E-007
   74.4918750000000        -4.936369568368046E-007
   74.7056250000000        -5.737719402147042E-007
   74.9193750000000        -6.564733174564968E-007
   75.1331250000000        -7.358238355572811E-007
   75.3468750000000        -8.056841628392713E-007
   75.5606250000000        -8.601452739218292E-007
   75.7743750000000        -8.939988318877195E-007
   75.9881250000000        -9.031944033064178E-007
   76.2018750000000        -8.852507289416697E-007
   76.4156250000000        -8.395882390529929E-007
   76.6293750000000        -7.677517532050782E-007
   76.8431250000000        -6.734960619351009E-007
   77.0568750000000        -5.627130537062721E-007
   77.2706250000000        -4.431873519662103E-007
   77.4843750000000        -3.241780346609470E-007
   77.6981250000000        -2.158366709612959E-007
   77.9118750000000        -1.284860800483377E-007
   78.1256250000000        -7.179902210972713E-008
   78.3393750000000        -5.393027521560657E-008
   78.5531250000000        -8.066777697349023E-008
   78.7668750000000        -1.546771049951150E-007
   78.9806250000000        -2.749169441732209E-007
   79.1943750000000        -4.362999629985314E-007
   79.4081250000000        -6.296627548420032E-007
   79.6218750000000        -8.420898887886428E-007
   79.8356250000000        -1.057611161439175E-006
   80.0493750000000        -1.258259237474629E-006
   80.2631250000000        -1.425439297774815E-006
   80.4768750000000        -1.541526136786353E-006
   80.6906250000000        -1.591570972106078E-006
   80.9043750000000        -1.564973877722125E-006
   81.1181250000000        -1.456961882286727E-006
   81.3318750000000        -1.269710433360830E-006
   81.5456250000000        -1.012959144512100E-006
   81.7593750000000        -7.040021706595282E-007
   81.9731250000000        -3.669782463622321E-007
   82.1868750000000        -3.144273338315719E-008
   82.4006250000000         2.697302731291320E-007
   82.6143750000000         5.029991786053968E-007
   82.8281250000000         6.371778677361164E-007
   83.0418750000000         6.465940810443514E-007
   83.2556250000000         5.141086476388140E-007
   83.4693750000000         2.337046507741548E-007
   83.6831250000000        -1.876353667274042E-007
   83.8968750000000        -7.290101613668898E-007
   84.1106250000000        -1.355822771117562E-006
   84.3243750000000        -2.021245899916889E-006
   84.5381250000000        -2.668929339967263E-006
   84.7518750000000        -3.236839863341876E-006
   84.9656250000000        -3.662015269033327E-006
   85.1793750000000        -3.885915645572650E-006
   85.3931250000000        -3.859975748787241E-006
   85.6068750000000        -3.550910875898361E-006
   85.8206250000000        -2.945310966497357E-006
   86.0343750000000        -2.053077527012535E-006
   86.2481250000000        -9.093160146842974E-007
   86.4618750000000         4.256099704840380E-007
   86.6756250000000         1.868032510016658E-006
   86.8893750000000         3.314965346046080E-006
   87.1031250000000         4.649988978185213E-006
   87.3168750000000         5.750744893474750E-006
   87.5306250000000         6.497604412300917E-006
   87.7443750000000         6.782957242360895E-006
   87.9581250000000         6.520478946353733E-006
   88.1718750000000         5.653693333192408E-006
   88.3856250000000         4.163150610806874E-006
   88.5993750000000         2.071597003216436E-006
   88.8131250000000        -5.533851318532138E-007
   89.0268750000000        -3.599640994881987E-006
   89.2406250000000        -6.913803681666444E-006
   89.4543750000000        -1.030773906815633E-005
   89.6681250000000        -1.356784829653699E-005
   89.8818750000000        -1.646679099182048E-005
   90.0956250000000        -1.877700248243305E-005
   90.3093750000000        -2.028522286994922E-005
   90.5231250000000        -2.080714729616087E-005
   90.7368750000000        -2.020125482112615E-005
   90.9506250000000        -1.838088386064285E-005
   91.1643750000000        -1.532369669431041E-005
   91.3781250000000        -1.107781102145831E-005
   91.5918750000000        -5.764065142153452E-006
   91.8056250000000         4.258869525381316E-007
   92.0193750000000         7.235698968060969E-006
   92.2331250000000         1.435445944767417E-005
   92.4468750000000         2.143035584797009E-005
   92.6606250000000         2.808718587175938E-005
   92.8743750000000         3.394284885168056E-005
   93.0881250000000         3.862883029585281E-005
   93.3018750000000         4.180963868020432E-005
   93.5156250000000         4.320116755487951E-005
   93.7293750000000         4.258703469335028E-005
   93.9431250000000         3.983208467827442E-005
   94.1568750000000         3.489241883931035E-005
   94.3706250000000         2.782152058713143E-005
   94.5843750000000         1.877225727282136E-005
   94.7981250000000         7.994744567792721E-006
   95.0118750000000        -4.169758863331759E-006
   95.2256250000000        -1.729861093075505E-005
   95.4393750000000        -3.090077685001324E-005
   95.6531250000000        -4.443256092511789E-005
   95.8668750000000        -5.731555799347142E-005
   96.0806250000000        -6.895629833290049E-005
   96.2943750000000        -7.876706924107027E-005
   96.5081250000000        -8.618740682348147E-005
   96.7218750000000        -9.070575055147921E-005
   96.9356250000000        -9.188073182123666E-005
   97.1493750000000        -8.936152191271952E-005
   97.3631250000000        -8.290659633419984E-005
   97.5768750000000        -7.240018991114299E-005
   97.7906250000000        -5.786563446253706E-005
   98.0043750000000        -3.947470740443536E-005
   98.2181250000000        -1.755209646624016E-005
   98.4318750000000         7.425876029953254E-006
   98.6456250000000         3.483900834964980E-005
   98.8593750000000         6.393798449746751E-005
   99.0731250000000         9.386637719595650E-005
   99.2868750000000         1.236897268584167E-004
   99.5006250000000         1.524310760587103E-004
   99.7143750000000         1.791118398954366E-004
   99.9281250000000         2.027963904301989E-004
   100.141875000000         2.226382714009731E-004
   100.355625000000         2.379255833855577E-004
   100.569375000000         2.481228333757112E-004
   100.783125000000         2.529064639361627E-004
   100.996875000000         2.521913930046797E-004
   101.210625000000         2.461462193331281E-004
   101.424375000000         2.351952776779038E-004
   101.638125000000         2.200064417922443E-004
   101.851875000000         2.014644346024766E-004
   102.065625000000         1.806303609164176E-004
   102.279375000000         1.586891637862841E-004
   102.493125000000         1.368876487347574E-004
   102.706875000000         1.164665455911547E-004
   102.920625000000         9.859071423569572E-005
   103.134375000000         8.428198594587037E-005
   103.348125000000         7.435921885153539E-005
   103.561875000000         6.938990619470738E-005
   103.775625000000         6.965710445631240E-005
   103.989375000000         7.514456454491437E-005
   104.203125000000         8.554179773137723E-005
   104.416875000000         1.002694568084687E-004
   104.630625000000         1.185239498913658E-004
   104.844375000000         1.393387318566093E-004
   105.058125000000         1.616583471433664E-004
   105.271875000000         1.844201382177309E-004
   105.485625000000         2.066376889406207E-004
   105.699375000000         2.274796272445506E-004
   105.913125000000         2.463374282502557E-004
   106.126875000000         2.628763674160668E-004
   106.340625000000         2.770647677450416E-004
   106.554375000000         2.891781214124263E-004
   106.768125000000         2.997764625249900E-004
   106.981875000000         3.096554078915389E-004
   107.195625000000         3.197734227701142E-004
   107.409375000000         3.311599463467940E-004
   107.623125000000         3.448108583213520E-004
   107.836875000000         3.615792210509639E-004
   108.050625000000         3.820701490141356E-004
   108.264375000000         4.065489298682736E-004
   108.478125000000         4.348710844910273E-004
   108.691875000000         4.664418952965810E-004
   108.905625000000         5.002110982666192E-004
   109.119375000000         5.347060272608666E-004
   109.333125000000         5.681036744438058E-004
   109.546875000000         5.983390861461066E-004
   109.760625000000         6.232444764085040E-004
   109.974375000000         6.407106503010683E-004
   110.188125000000         6.488600186910307E-004
   110.401875000000         6.462188623596126E-004
   110.615625000000         6.318757292193321E-004
   110.829375000000         6.056130277537317E-004
   111.043125000000         5.680000466157893E-004
   111.256875000000         5.204377430042123E-004
   111.470625000000         4.651485843911816E-004
   111.684375000000         4.051083143891653E-004
   111.898125000000         3.439205029402590E-004
   112.111875000000         2.856388536321332E-004
   112.325625000000         2.345461786316255E-004
   112.539375000000         1.949024206631417E-004
   112.753125000000         1.706768347345183E-004
   112.966875000000         1.652812207020059E-004
   113.180625000000         1.813217670368393E-004
   113.394375000000         2.203865495102302E-004
   113.608125000000         2.828840332023312E-004
   113.821875000000         3.679451438289927E-004
   114.035625000000         4.733977746977994E-004
   114.249375000000         5.958182148906666E-004
   114.463125000000         7.306592084557941E-004
   114.676875000000         8.724494988674920E-004
   114.890625000000         1.015055100397024E-003
   115.104375000000         1.151988475636842E-003
   115.318125000000         1.276748557016144E-003
   115.531875000000         1.383172345603888E-003
   115.745625000000         1.465777799465609E-003
   115.959375000000         1.520077954456747E-003
   116.173125000000         1.542847688463036E-003
   116.386875000000         1.532327151265470E-003
   116.600625000000         1.488349468950531E-003
   116.814375000000         1.412384665785106E-003
   117.028125000000         1.307496554523704E-003
   117.241875000000         1.178214328755152E-003
   117.455625000000         1.030325442381869E-003
   117.669375000000         8.706007895225962E-004
   117.883125000000         7.064669430184673E-004
   118.096875000000         5.456430592623912E-004
   118.310625000000         3.957618594515244E-004
   118.524375000000         2.639947688860599E-004
   118.738125000000         1.567008241600116E-004
   118.951875000000         7.911740014003577E-005
   119.165625000000         3.510828501870900E-005
   119.379375000000         2.698131624594364E-005
   119.593125000000         5.538389670759489E-005
   119.806875000000         1.192804780619861E-004
   120.020625000000         2.160117746440476E-004
   120.234375000000         3.414312982320707E-004
   120.448125000000         4.901110019103895E-004
   120.661875000000         6.556045782658056E-004
   120.875625000000         8.307544196520921E-004
   121.089375000000         1.008026515485457E-003
   121.303125000000         1.179856683383121E-003
   121.516875000000         1.338991509011570E-003
   121.730625000000         1.478808160916104E-003
   121.944375000000         1.593598770119752E-003
   122.158125000000         1.678807207862629E-003
   122.371875000000         1.731208724027220E-003
   122.585625000000         1.749025875187780E-003
   122.799375000000         1.731977320703449E-003
   123.013125000000         1.681259245313159E-003
   123.226875000000         1.599462232692975E-003
   123.440625000000         1.490429234977417E-003
   123.654375000000         1.359062744215549E-003
   123.868125000000         1.211091279507838E-003