  -1.60312500000000        -6.637008069082769E-024
  -1.38937500000000         2.282667424567253E-016
  -1.17562500000000         1.634849398813153E-015
 -0.961875000000000         7.977711262766873E-015
 -0.748125000000000         3.134334563077154E-014
 -0.534375000000000         1.035529252551188E-013
 -0.320625000000000         2.935735509092035E-013
 -0.106875000000000         7.253711778950390E-013
  0.106875000000000         1.586288554956788E-012
  0.320625000000000         3.118024693981898E-012
  0.534375000000000         5.593572589582338E-012
  0.748125000000000         9.287341561639381E-012
  0.961875000000000         1.444132685421252E-011
   1.17562500000000         2.122899601696640E-011
   1.38937500000000         2.970158732019749E-011
   1.60312500000000         3.973045377303609E-011
   1.81687500000000         5.095352347747471E-011
   2.03062500000000         6.272724072832213E-011
   2.24437500000000         7.411988790502476E-011
   2.45812500000000         8.392978306203000E-011
   2.67187500000000         9.076054843129396E-011
   2.88562500000000         9.313220554541749E-011
   3.09937500000000         8.962131408662039E-011
   3.31312500000000         7.903823334884304E-011
   3.52687500000000         6.056382598090006E-011
   3.74062500000000         3.389555159089824E-011
   3.95437500000000        -7.018526799845716E-013
   4.16812500000000        -4.236915943304352E-011
   4.38187500000000        -8.977396848512987E-011
   4.59562500000000        -1.412246500575397E-010
   4.80937500000000        -1.949160902270005E-010
   5.02312500000000        -2.491410788460337E-010
   5.23687500000000        -3.025085143756225E-010
   5.45062500000000        -3.540726263039563E-010
   5.66437500000000        -4.033961035988997E-010
   5.87812500000000        -4.504769014350200E-010
   6.09187500000000        -4.955693301768975E-010
   6.30562500000000        -5.389325242481064E-010
   6.51937500000000        -5.805153208941050E-010
   6.73312500000000        -6.196969896361267E-010
   6.94687500000000        -6.550935827951297E-010
   7.16062500000000        -6.845251656654125E-010
   7.37437500000000        -7.051405713015841E-010
   7.58812500000000        -7.137352464770623E-010
   7.80187500000000        -7.071827805340254E-010
   8.01562500000000        -6.829740649118881E-010
   8.22937500000000        -6.397214380656542E-010
   8.44312500000000        -5.775300022078575E-010
   8.65687500000000        -4.982150601679321E-010
   8.87062500000000        -4.052218373228644E-010
   9.08437500000000        -3.033100006351336E-010
   9.29812500000000        -1.979822160512778E-010
   9.51187500000000        -9.476334769476974E-011
   9.72562500000000         1.520845439481070E-012
   9.93937500000000         8.742253062036072E-011
   10.1531250000000         1.613113822049834E-010
   10.3668750000000         2.234949084262252E-010
   10.5806250000000         2.760447558978759E-010
   10.7943750000000         3.222869796479314E-010
   11.0081250000000         3.660861117023463E-010
   11.2218750000000         4.110309600677870E-010
   11.4356250000000         4.596949438006860E-010
   11.6493750000000         5.131135120528448E-010
   11.8631250000000         5.705570398734008E-010
   12.0768750000000         6.297220365305051E-010
   12.2906250000000         6.872332580934755E-010
   12.5043750000000         7.394057900410931E-010
   12.7181250000000         7.831733380981626E-010
   12.9318750000000         8.168918170730719E-010
   13.1456250000000         8.409432887418809E-010
   13.3593750000000         8.579806722081926E-010
   13.5731250000000         8.727128663620703E-010
   13.7868750000000         8.913299061449694E-010
   14.0006250000000         9.205158922225732E-010
   14.2143750000000         9.663850028519625E-010
   14.4281250000000         1.033402138594910E-009
   14.6418750000000         1.123508107515926E-009
   14.8556250000000         1.235651172814091E-009
   15.0693750000000         1.365800840002562E-009
   15.2831250000000         1.507400067392288E-009
   15.4968750000000         1.652247666220451E-009
   15.7106250000000         1.791625796390215E-009
   15.9243750000000         1.917487140580763E-009
   16.1381250000000         2.023482140076433E-009
   16.3518750000000         2.105738932466540E-009
   16.5656250000000         2.163122458073367E-009
   16.7793750000000         2.197125139381801E-009
   16.9931250000000         2.211321441213581E-009
   17.2068750000000         2.210513757058922E-009
   17.4206250000000         2.199801554480729E-009
   17.6343750000000         2.183683899660124E-009
   17.8481250000000         2.165359729434511E-009
   18.0618750000000         2.146401467339785E-009
   18.2756250000000         2.126742059298714E-009
   18.4893750000000         2.105020463470168E-009
   18.7031250000000         2.079194172055902E-009
   18.9168750000000         2.047211272322240E-009
   19.1306250000000         2.007727496452525E-009
   19.3443750000000         1.960603718698909E-009
   19.5581250000000         1.907187740364500E-009
   19.7718750000000         1.850336496245448E-009
   19.9856250000000         1.794096094874910E-009
   20.1993750000000         1.743266088499824E-009
   20.4131250000000         1.702780092062555E-009
   20.6268750000000         1.677117902540097E-009
   20.8406250000000         1.669800179706545E-009
   21.0543750000000         1.683031683230465E-009
   21.2681250000000         1.717520226785470E-009
   21.4818750000000         1.772531168167131E-009
   21.6956250000000         1.846041740121091E-009
   21.9093750000000         1.935030550603696E-009
   22.1231250000000         2.035795899835885E-009
   22.3368750000000         2.144293266276143E-009
   22.5506250000000         2.256419905281844E-009
   22.7643750000000         2.368248123835180E-009
   22.9781250000000         2.476217915858538E-009
   23.1918750000000         2.577280919425195E-009
   23.4056250000000         2.669017562697626E-009
   23.6193750000000         2.749713666184362E-009
   23.8331250000000         2.818447562678692E-009
   24.0468750000000         2.875112207807937E-009
   24.2606250000000         2.920413994129832E-009
   24.4743750000000         2.955809817920061E-009
   24.6881250000000         2.983381111167166E-009
   24.9018750000000         3.005657076650555E-009
   25.1156250000000         3.025415751279324E-009
   25.3293750000000         3.045468297212256E-009
   25.5431250000000         3.068475802259185E-009
   25.7568750000000         3.096835403491612E-009
   25.9706250000000         3.132640615687612E-009
   26.1843750000000         3.177709754976110E-009
   26.3981250000000         3.233656596089298E-009
   26.6118750000000         3.302011566030589E-009
   26.8256250000000         3.384285284604186E-009
   27.0393750000000         3.481947507046546E-009
   27.2531250000000         3.596343478801718E-009
   27.4668750000000         3.728494415411682E-009
   27.6806250000000         3.878806550005842E-009
   27.8943750000000         4.046756161274206E-009
   28.1081250000000         4.230653554951378E-009
   28.3218750000000         4.427454111890815E-009
   28.5356250000000         4.632776112618116E-009
   28.7493750000000         4.841095700813457E-009
   28.9631250000000         5.046170341540392E-009
   29.1768750000000         5.241579352970376E-009
   29.3906250000000         5.421369834667390E-009
   29.6043750000000         5.580668877359626E-009
   29.8181250000000         5.716229725551904E-009
   30.0318750000000         5.826714209393438E-009
   30.2456250000000         5.912805080213425E-009
   30.4593750000000         5.977000055806314E-009
   30.6731250000000         6.023203774719990E-009
   30.8868750000000         6.056160705231462E-009
   31.1006250000000         6.080815194757249E-009
   31.3143750000000         6.101732003589307E-009
   31.5281250000000         6.122614318197064E-009
   31.7418750000000         6.146035446737588E-009
   31.9556250000000         6.173374506897435E-009
   32.1693750000000         6.204958770641220E-009
   32.3831250000000         6.240354116521714E-009
   32.5968750000000         6.278711474418255E-009
   32.8106250000000         6.319140657325420E-009
   33.0243750000000         6.360986763104335E-009
   33.2381250000000         6.403963095470150E-009
   33.4518750000000         6.448169043002204E-009
   33.6656250000000         6.493956292179654E-009
   33.8793750000000         6.541724329914484E-009
   34.0931250000000         6.591658241857761E-009
   34.3068750000000         6.643530916916995E-009
   34.5206250000000         6.696592448135562E-009
   34.7343750000000         6.749558732202534E-009
   34.9481250000000         6.800759358933619E-009
   35.1618750000000         6.848376965447217E-009
   35.3756250000000         6.890770065118587E-009
   35.5893750000000         6.926807813001985E-009
   35.8031250000000         6.956137360683000E-009
   36.0168750000000         6.979391594051746E-009
   36.2306250000000         6.998228361589398E-009
   36.4443750000000         7.015260864977576E-009
   36.6581250000000         7.033801603377851E-009
   36.8718750000000         7.057539004398329E-009
   37.0856250000000         7.090126942300306E-009
   37.2993750000000         7.134781383500699E-009
   37.5131250000000         7.193878230881572E-009
   37.7268750000000         7.268674704540146E-009
   37.9406250000000         7.359143051311681E-009
   38.1543750000000         7.463937473308038E-009
   38.3681250000000         7.580534779121767E-009
   38.5818750000000         7.705488027044386E-009
   38.7956250000000         7.834810228060237E-009
   39.0093750000000         7.964424447734190E-009
   39.2231250000000         8.090622249192193E-009
   39.4368750000000         8.210501578191060E-009
   39.6506250000000         8.322308270379525E-009
   39.8643750000000         8.425631580336718E-009
   40.0781250000000         8.521441329289575E-009
   40.2918750000000         8.611947169164202E-009
   40.5056250000000         8.700293484029362E-009
   40.7193750000000         8.790116192248056E-009
   40.9331250000000         8.885035888000091E-009
   41.1468750000000         8.988180863542554E-009
   41.3606250000000         9.101720451081981E-009
   41.5743750000000         9.226619057607513E-009
   41.7881250000000         9.362544732611200E-009
   42.0018750000000         9.507959382970939E-009
   42.2156250000000         9.660405204358825E-009
   42.4293750000000         9.816977988117560E-009
   42.6431250000000         9.974757947102533E-009
   42.8568750000000         1.013130142918659E-008
   43.0706250000000         1.028495674894418E-008
   43.2843750000000         1.043504846036043E-008
   43.4981250000000         1.058183398072486E-008
   43.7118750000000         1.072626878500637E-008
   43.9256250000000         1.086963131544109E-008
   44.1393750000000         1.101306301945164E-008
   44.3531250000000         1.115713746864697E-008
   44.5668750000000         1.130155746239081E-008
   44.7806250000000         1.144500145105503E-008
   44.9943750000000         1.158522708222931E-008
   45.2081250000000         1.171936366057361E-008
   45.4218750000000         1.184437431568129E-008
   45.6356250000000         1.195760798266099E-008
   45.8493750000000         1.205729765160918E-008
   46.0631250000000         1.214296201386278E-008
   46.2768750000000         1.221558858890260E-008
   46.4906250000000         1.227755007637408E-008
   46.7043750000000         1.233231107849892E-008
   46.9181250000000         1.238389915923127E-008
   47.1318750000000         1.243629155341427E-008
   47.3456250000000         1.249280089563799E-008
   47.5593750000000         1.255555295225303E-008
   47.7731250000000         1.262522566548093E-008
   47.9868750000000         1.270096763989500E-008
   48.2006250000000         1.278067701130947E-008
   48.4143750000000         1.286145265470928E-008
   48.6281250000000         1.294020584255634E-008
   48.8418750000000         1.301432828470604E-008
   49.0556250000000         1.308224486668586E-008
   49.2693750000000         1.314384223809504E-008
   49.4831250000000         1.320057933903094E-008
   49.6968750000000         1.325534147345464E-008
   49.9106250000000         1.331206774035466E-008
   50.1243750000000         1.337511757041723E-008
   50.3381250000000         1.344860107871584E-008
   50.5518750000000         1.353569876917258E-008
   50.7656250000000         1.363812424745306E-008
   50.9793750000000         1.375579149073507E-008
   51.1931250000000         1.388677369771144E-008
   51.4068750000000         1.402754185377907E-008
   51.6206250000000         1.417341209688103E-008
   51.8343750000000         1.431921638213978E-008
   52.0481250000000         1.445999106001437E-008
   52.2618750000000         1.459166602088785E-008
   52.4756250000000         1.471157323863525E-008
   52.6893750000000         1.481876718136462E-008
   52.9031250000000         1.491409267109597E-008
   53.1168750000000         1.499995179534957E-008
   53.3306250000000         1.507990652071646E-008
   53.5443750000000         1.515809937822673E-008
   53.7581250000000         1.523865111631615E-008
   53.9718750000000         1.532506745433734E-008
   54.1856250000000         1.541981842439017E-008
   54.3993750000000         1.552410603999201E-008
   54.6131250000000         1.563783922101280E-008
   54.8268750000000         1.575984671220982E-008
   55.0406250000000         1.588823346451759E-008
   55.2543750000000         1.602085957358041E-008
   55.4681250000000         1.615579856317521E-008
   55.6818750000000         1.629171411758719E-008
   55.8956250000000         1.642807444593963E-008
   56.1093750000000         1.656516377145513E-008
   56.3231250000000         1.670390245530074E-008
   56.5368750000000         1.684549391170141E-008
   56.7506250000000         1.699095296926483E-008
   56.9643750000000         1.714067773966969E-008
   57.1781250000000         1.729408697575261E-008
   57.3918750000000         1.744942995441090E-008
   57.6056250000000         1.760384412473918E-008
   57.8193750000000         1.775365336203816E-008
   58.0331250000000         1.789483485009464E-008
   58.2468750000000         1.802367288728338E-008
   58.4606250000000         1.813735694379795E-008
   58.6743750000000         1.823453901653724E-008
   58.8881250000000         1.831567304461623E-008
   59.1018750000000         1.838307740051435E-008
   59.3156250000000         1.844072023237601E-008
   59.5293750000000         1.849372575655619E-008
   59.7431250000000         1.854771273487120E-008
   59.9568750000000         1.860804114845482E-008
   60.1706250000000         1.867911750823570E-008
   60.3843750000000         1.876386957727685E-008
   60.5981250000000         1.886347470768810E-008
   60.8118750000000         1.897737271616992E-008
   61.0256250000000         1.910356817293782E-008
   61.2393750000000         1.923912583539212E-008
   61.4531250000000         1.938078645311348E-008
   61.6668750000000         1.952555220584165E-008
   61.8806250000000         1.967117104341134E-008
   62.0943750000000         1.981639268949572E-008
   62.3081250000000         1.996102609935227E-008
   62.5218750000000         2.010573001804204E-008
   62.7356250000000         2.025164536638821E-008
   62.9493750000000         2.039999672238839E-008
   63.1631250000000         2.055163832466511E-008
   63.3768750000000         2.070679749805772E-008
   63.5906250000000         2.086492536901186E-008
   63.8043750000000         2.102477578877507E-008
   64.0181250000000         2.118460675849211E-008
   64.2318750000000         2.134250900116769E-008
   64.4456250000000         2.149672781546942E-008
   64.6593750000000         2.164592220508348E-008
   64.8731250000000         2.178929046025698E-008
   65.0868750000000         2.192655999581179E-008
   65.3006250000000         2.205780116607496E-008
   65.5143750000000         2.218321793441948E-008
   65.7281250000000         2.230288081552458E-008
   65.9418750000000         2.241655492973793E-008
   66.1556250000000         2.252369078728784E-008
   66.3693750000000         2.262351526386605E-008
   66.5831250000000         2.271534593063065E-008
   66.7968750000000         2.279896201225130E-008
   67.0106250000000         2.287496756000888E-008
   67.2243750000000         2.294509791338057E-008
   67.4381250000000         2.301228155694357E-008
   67.6518750000000         2.308051447401334E-008
   67.8656250000000         2.315445108035389E-008
   68.0793750000000         2.323881569810429E-008
   68.2931250000000         2.333771926868166E-008
   68.5068750000000         2.345398353174201E-008
   68.7206250000000         2.358864148394062E-008
   68.9343750000000         2.374069243215088E-008
   69.1481250000000         2.390719856833048E-008
   69.3618750000000         2.408365510792104E-008
   69.5756250000000         2.426465997914959E-008
   69.7893750000000         2.444469169801303E-008
   70.0031250000000         2.461886236525583E-008
   70.2168750000000         2.478354060765755E-008
   70.4306250000000         2.493668431957288E-008
   70.6443750000000         2.507784697502492E-008
   70.8581250000000         2.520787450530682E-008
   71.0718750000000         2.532836638663479E-008
   71.2856250000000         2.544103118768283E-008
   71.4993750000000         2.554705900310732E-008
   71.7131250000000         2.564671306511941E-008
   71.9268750000000         2.573917279325775E-008
   72.1406250000000         2.582268457783073E-008
   72.3543750000000         2.589508455161817E-008
   72.5681250000000         2.595442652149351E-008
   72.7818750000000         2.599971295999915E-008
   72.9956250000000         2.603149856491823E-008
   73.2093750000000         2.605228331578373E-008
   73.4231250000000         2.606653011518151E-008
   73.6368750000000         2.608031830068703E-008
   73.8506250000000         2.610067791481791E-008
   74.0643750000000         2.613472578300957E-008
   74.2781250000000         2.618871572842535E-008
   74.4918750000000         2.626722819638476E-008
   74.7056250000000         2.637258257634524E-008
   74.9193750000000         2.650464994618147E-008
   75.1331250000000         2.666100138383547E-008
   75.3468750000000         2.683746448307654E-008
   75.5606250000000         2.702885385440660E-008
   75.7743750000000         2.722986196435824E-008
   75.9881250000000         2.743583342992208E-008
   76.2018750000000         2.764337538242103E-008
   76.4156250000000         2.785064692695948E-008
   76.6293750000000         2.805732905398896E-008
   76.8431250000000         2.826427984197309E-008
   77.0568750000000         2.847299477743298E-008
   77.2706250000000         2.868494946617487E-008
   77.4843750000000         2.890102051009686E-008
   77.6981250000000         2.912103364080430E-008
   77.9118750000000         2.934356475739499E-008
   78.1256250000000         2.956601783050091E-008
   78.3393750000000         2.978493321758293E-008
   78.5531250000000         2.999648026768293E-008
   78.7668750000000         3.019701925045562E-008
   78.9806250000000         3.038362964615286E-008
   79.1943750000000         3.055453611371783E-008
   79.4081250000000         3.070931925550566E-008
   79.6218750000000         3.084892568501654E-008
   79.8356250000000         3.097549936167519E-008
   80.0493750000000         3.109204694571856E-008
   80.2631250000000         3.120204143996562E-008
   80.4768750000000         3.130904599711811E-008
   80.6906250000000         3.141635077210580E-008
   80.9043750000000         3.152678415577605E-008
   81.1181250000000         3.164259964429394E-008
   81.3318750000000         3.176547447005019E-008
   81.5456250000000         3.189658700270287E-008
   81.7593750000000         3.203674582683513E-008
   81.9731250000000         3.218645142179887E-008
   82.1868750000000         3.234595465642993E-008
   82.4006250000000         3.251519018532622E-008
   82.6143750000000         3.269374000270947E-008
   82.8281250000000         3.288064640699218E-008
   83.0418750000000         3.307434296542328E-008
   83.2556250000000         3.327248461850934E-008
   83.4693750000000         3.347201063920339E-008
   83.6831250000000         3.366921015730155E-008
   83.8968750000000         3.385992943097102E-008
   84.1106250000000         3.403989457564565E-008
   84.3243750000000         3.420513187723561E-008
   84.5381250000000         3.435237451770749E-008
   84.7518750000000         3.447948163286381E-008
   84.9656250000000         3.458580262330064E-008
   85.1793750000000         3.467237872960547E-008
   85.3931250000000         3.474203577771973E-008
   85.6068750000000         3.479921781816249E-008
   85.8206250000000         3.484975640229035E-008
   86.0343750000000         3.490037336758648E-008
   86.2481250000000         3.495812390153808E-008
   86.4618750000000         3.502976619237028E-008
   86.6756250000000         3.512116999206679E-008
   86.8893750000000         3.523671921361012E-008
   87.1031250000000         3.537900189429232E-008
   87.3168750000000         3.554853020211205E-008
   87.5306250000000         3.574382700207061E-008
   87.7443750000000         3.596160053435622E-008
   87.9581250000000         3.619724300057000E-008
   88.1718750000000         3.644531722818942E-008
   88.3856250000000         3.670024081051505E-008
   88.5993750000000         3.695687350736408E-008
   88.8131250000000         3.721103029665837E-008
   89.0268750000000         3.745986709731906E-008
   89.2406250000000         3.770203154278394E-008
   89.4543750000000         3.793769986369254E-008
   89.6681250000000         3.816835323164008E-008
   89.8818750000000         3.839651260700444E-008
   90.0956250000000         3.862537522320400E-008
   90.3093750000000         3.885845115865085E-008
   90.5231250000000         3.909931046239797E-008
   90.7368750000000         3.935133542388563E-008
   90.9506250000000         3.961764501666284E-008
   91.1643750000000         3.990106758557699E-008
   91.3781250000000         4.020413172442144E-008
   91.5918750000000         4.052909606743694E-008
   91.8056250000000         4.087788371009794E-008
   92.0193750000000         4.125196431618278E-008
   92.2331250000000         4.165212018504122E-008
   92.4468750000000         4.207818914173883E-008
   92.6606250000000         4.252873898002759E-008
   92.8743750000000         4.300080576734621E-008
   93.0881250000000         4.348978682518456E-008
   93.3018750000000         4.398943102335645E-008
   93.5156250000000         4.449208215321819E-008
   93.7293750000000         4.498915417995066E-008
   93.9431250000000         4.547171900752469E-008
   94.1568750000000         4.593129631129116E-008
   94.3706250000000         4.636059577057914E-008
   94.5843750000000         4.675423517479562E-008
   94.7981250000000         4.710929994457233E-008
   95.0118750000000         4.742564883026104E-008
   95.2256250000000         4.770591683900086E-008
   95.4393750000000         4.795528329152216E-008
   95.6531250000000         4.818092702672351E-008
   95.8668750000000         4.839125555761856E-008
   96.0806250000000         4.859502990229018E-008
   96.2943750000000         4.880039373033201E-008
   96.5081250000000         4.901395525040833E-008
   96.7218750000000         4.923994467147066E-008
   96.9356250000000         4.947958251430296E-008
   97.1493750000000         4.973061474513249E-008
   97.3631250000000         4.998713575983742E-008
   97.5768750000000         5.023966347552612E-008
   97.7906250000000         5.047548032388750E-008
   98.0043750000000         5.067923342233474E-008
   98.2181250000000         5.083373788446201E-008
   98.4318750000000         5.092099955323447E-008
   98.6456250000000         5.092329408958659E-008
   98.8593750000000         5.082431864006173E-008
   99.0731250000000         5.061028048123049E-008
   99.2868750000000         5.027084203627001E-008
   99.5006250000000         4.979984225284254E-008
   99.7143750000000         4.919571453017118E-008
   99.9281250000000         4.846155300803290E-008
   100.141875000000         4.760490766070089E-008
   100.355625000000         4.663718001230957E-008
   100.569375000000         4.557287030858761E-008
   100.783125000000         4.442858369900108E-008
   100.996875000000         4.322208640393156E-008
   101.210625000000         4.197129303766636E-008
   101.424375000000         4.069349962489416E-008
   101.638125000000         3.940466728946340E-008
   101.851875000000         3.811899190340510E-008
   102.065625000000         3.684855901454830E-008
   102.279375000000         3.560318683393529E-008
   102.493125000000         3.439031296420401E-008
   102.706875000000         3.321493483156971E-008
   102.920625000000         3.207955044103825E-008
   103.134375000000         3.098414062368998E-008
   103.348125000000         2.992617761428409E-008
   103.561875000000         2.890074956767343E-008
   103.775625000000         2.790085587767998E-008
   103.989375000000         2.691787945955497E-008
   104.203125000000         2.594236471034623E-008
   104.416875000000         2.496495504201816E-008
   104.630625000000         2.397751017901446E-008
   104.844375000000         2.297429744945128E-008
   105.058125000000         2.195313031205900E-008
   105.271875000000         2.091621637656380E-008
   105.485625000000         1.987073082117448E-008
   105.699375000000         1.882891569985880E-008
   105.913125000000         1.780768901393850E-008
   106.126875000000         1.682780776376349E-008
   106.340625000000         1.591260428901043E-008
   106.554375000000         1.508648121191256E-008
   106.768125000000         1.437330106965420E-008
   106.981875000000         1.379480750019525E-008
   107.195625000000         1.336927261928468E-008
   107.409375000000         1.311040361417378E-008
   107.623125000000         1.302665948372058E-008
   107.836875000000         1.312091222592545E-008
   108.050625000000         1.339042296864715E-008
   108.264375000000         1.382712139718358E-008
   108.478125000000         1.441807451858788E-008
   108.691875000000         1.514604042841915E-008
   108.905625000000         1.599013781963005E-008
   109.119375000000         1.692651916749808E-008
   109.333125000000         1.792914411402863E-008
   109.546875000000         1.897058450962956E-008
   109.760625000000         2.002287806034224E-008
   109.974375000000         2.105859668695706E-008
   110.188125000000         2.205185135483787E-008
   110.401875000000         2.297949228108618E-008
   110.615625000000         2.382216016482822E-008
   110.829375000000         2.456532380902395E-008
   111.043125000000         2.520003899486617E-008
   111.256875000000         2.572342619801024E-008
   111.470625000000         2.613875818672758E-008
   111.684375000000         2.645514135571510E-008
   111.898125000000         2.668677314208412E-008
   112.111875000000         2.685189015100915E-008
   112.325625000000         2.697144050061235E-008
   112.539375000000         2.706763522733396E-008
   112.753125000000         2.716250890522651E-008
   112.966875000000         2.727660480093690E-008
   113.180625000000         2.742787386467915E-008
   113.394375000000         2.763086647163680E-008
   113.608125000000         2.789621033525369E-008
   113.821875000000         2.823044232893808E-008
   114.035625000000         2.863602497044088E-008
   114.249375000000         2.911160090003381E-008
   114.463125000000         2.965240273787145E-008
   114.676875000000         3.025069986018533E-008
   114.890625000000         3.089632388276844E-008
   115.104375000000         3.157720428521358E-008
   115.318125000000         3.227989373513168E-008
   115.531875000000         3.299011260621858E-008
   115.745625000000         3.369334304466666E-008
   115.959375000000         3.437537179833619E-008
   116.173125000000         3.502291176216509E-008
   116.386875000000         3.562420926980289E-008
   116.600625000000         3.616956496471694E-008
   116.814375000000         3.665184802245362E-008
   117.028125000000         3.706681743737889E-008
   117.241875000000         3.741332492924041E-008
   117.455625000000         3.769327774609470E-008
   117.669375000000         3.791142974325862E-008
   117.883125000000         3.807493784194533E-008
   118.096875000000         3.819276887725908E-008
   118.310625000000         3.827498517291974E-008
   118.524375000000         3.833198348941595E-008
   118.738125000000         3.837377947095606E-008
   118.951875000000         3.840935371895118E-008
   119.165625000000         3.844618276931841E-008
   119.379375000000         3.848995843108414E-008
   119.593125000000         3.854451501201189E-008
   119.806875000000         3.861190880459754E-008
   120.020625000000         3.869272731350119E-008
   120.234375000000         3.878643493532766E-008
   120.448125000000         3.889183304501616E-008
   120.661875000000         3.900742303016470E-008
   120.875625000000         3.913180063669010E-008
   121.089375000000         3.926388884015453E-008
   121.303125000000         3.940307244073021E-008
   121.516875000000         3.954923687199153E-008
   121.730625000000         3.970271511489162E-008
   121.944375000000         3.986416896448480E-008
   122.158125000000         4.003441897900369E-008
   122.371875000000         4.021434967302376E-008
   122.585625000000         4.040473045477398E-008
   122.799375000000         4.060613982646226E-008
   123.013125000000         4.081886298137675E-008
   123.226875000000         4.104281964918233E-008
   123.440625000000         4.127746316786772E-008
   123.654375000000         4.152167892843834E-008
   123.868125000000         4.177364634493664E-008