  -1.60312500000000         3.929024546979619E-017
  -1.38937500000000         1.323260282934362E-011
  -1.17562500000000         1.050198863237944E-010
 -0.961875000000000         5.534938889056039E-010
 -0.748125000000000         2.321489887253704E-009
 -0.534375000000000         8.186961116796036E-009
 -0.320625000000000         2.492008919885840E-008
 -0.106875000000000         6.664564885075131E-008
  0.106875000000000         1.589592770321274E-007
  0.320625000000000         3.427656980977725E-007
  0.534375000000000         6.764503608830920E-007
  0.748125000000000         1.234940379400413E-006
  0.961875000000000         2.104716061987859E-006
   1.17562500000000         3.374410751086236E-006
   1.38937500000000         5.121743493177944E-006
   1.60312500000000         7.398542639718250E-006
   1.81687500000000         1.021623316077601E-005
   2.03062500000000         1.353386609532580E-005
   2.24437500000000         1.725155513712424E-005
   2.45812500000000         2.121330318796021E-005
   2.67187500000000         2.520277166182842E-005
   2.88562500000000         2.898155850522069E-005
   3.09937500000000         3.228172185092442E-005
   3.31312500000000         3.486966145072166E-005
   3.52687500000000         3.652190794825964E-005
   3.74062500000000         3.711677550298139E-005
   3.95437500000000         3.657315661196437E-005
   4.16812500000000         3.492563312273959E-005
   4.38187500000000         3.228038010453944E-005
   4.59562500000000         2.881622712421457E-005
   4.80937500000000         2.475219266830487E-005
   5.02312500000000         2.032166970242233E-005
   5.23687500000000         1.574285573619270E-005
   5.45062500000000         1.118419085193805E-005
   5.66437500000000         6.777127186220379E-006
   5.87812500000000         2.555798694427981E-006
   6.09187500000000        -1.445552412555173E-006
   6.30562500000000        -5.263483028293617E-006
   6.51937500000000        -8.882532349996390E-006
   6.73312500000000        -1.229727778959156E-005
   6.94687500000000        -1.538862612264750E-005
   7.16062500000000        -1.801204213251149E-005
   7.37437500000000        -1.990825963213705E-005
   7.58812500000000        -2.079660253231386E-005
   7.80187500000000        -2.037528731139558E-005
   8.01562500000000        -1.838214306128991E-005
   8.22937500000000        -1.464944955604471E-005
   8.44312500000000        -9.149784459661214E-006
   8.65687500000000        -2.010616326065853E-006
   8.87062500000000         6.464669659406299E-006
   9.08437500000000         1.585520600430016E-005
   9.29812500000000         2.560026187048293E-005
   9.51187500000000         3.514145970780511E-005
   9.72562500000000         4.391896813103989E-005
   9.93937500000000         5.151494352379631E-005
   10.1531250000000         5.762301057575432E-005
   10.3668750000000         6.216913094627388E-005
   10.5806250000000         6.521147904163714E-005
   10.7943750000000         6.700263892655733E-005
   11.0081250000000         6.785142761155922E-005
   11.2218750000000         6.813429555315700E-005
   11.4356250000000         6.815293058838298E-005
   11.6493750000000         6.814965741310081E-005
   11.8631250000000         6.822281340911782E-005
   12.0768750000000         6.835563881669903E-005
   12.2906250000000         6.843756446793069E-005
   12.5043750000000         6.830037908212506E-005
   12.7181250000000         6.782342230805503E-005
   12.9318750000000         6.695132564155524E-005
   13.1456250000000         6.577027685689941E-005
   13.3593750000000         6.452440366233328E-005
   13.5731250000000         6.360298275133626E-005
   13.7868750000000         6.349361370404655E-005
   14.0006250000000         6.470939252261652E-005
   14.2143750000000         6.770106545432617E-005
   14.4281250000000         7.277331104409848E-005
   14.6418750000000         8.000366154739281E-005
   14.8556250000000         8.921907138682774E-005
   15.0693750000000         1.000062879276869E-004
   15.2831250000000         1.117240640033905E-004
   15.4968750000000         1.236022705924233E-004
   15.7106250000000         1.348376697642993E-004
   15.9243750000000         1.447015032470082E-004
   16.1381250000000         1.526378292157470E-004
   16.3518750000000         1.583250733336308E-004
   16.5656250000000         1.617137181908994E-004
   16.7793750000000         1.630070120018665E-004
   16.9931250000000         1.626214884651542E-004
   17.2068750000000         1.611020826359185E-004
   17.4206250000000         1.590128937848497E-004
   17.6343750000000         1.568331390421504E-004
   17.8481250000000         1.549379579509364E-004
   18.0618750000000         1.534715038322148E-004
   18.2756250000000         1.524104368746185E-004
   18.4893750000000         1.515464264958330E-004
   18.7031250000000         1.505667735470383E-004
   18.9168750000000         1.491221316264780E-004
   19.1306250000000         1.469097132684174E-004
   19.3443750000000         1.437438168242016E-004
   19.5581250000000         1.396052199814643E-004
   19.7718750000000         1.346598846186344E-004
   19.9856250000000         1.292472008822544E-004
   20.1993750000000         1.238392453576474E-004
   20.4131250000000         1.189805821012384E-004
   20.6268750000000         1.152169030319744E-004
   20.8406250000000         1.130262850369590E-004
   21.0543750000000         1.127606453826296E-004
   21.2681250000000         1.146168208179344E-004
   21.4818750000000         1.186036938959803E-004
   21.6956250000000         1.245659162219017E-004
   21.9093750000000         1.321982515709051E-004
   22.1231250000000         1.410973726351055E-004
   22.3368750000000         1.508036732462461E-004
   22.5506250000000         1.608597509849058E-004
   22.7643750000000         1.708404214017770E-004
   22.9781250000000         1.803894358310328E-004
   23.1918750000000         1.892413977792310E-004
   23.4056250000000         1.972170157626412E-004
   23.6193750000000         2.042375512253377E-004
   23.8331250000000         2.103003758841053E-004
   24.0468750000000         2.154642792296268E-004
   24.2606250000000         2.198287235482980E-004
   24.4743750000000         2.235138143237147E-004
   24.6881250000000         2.266487402695384E-004
   24.9018750000000         2.293264960904007E-004
   25.1156250000000         2.316678135299974E-004
   25.3293750000000         2.337326425891734E-004
   25.5431250000000         2.356184301216297E-004
   25.7568750000000         2.373941906581414E-004
   25.9706250000000         2.391593983111059E-004
   26.1843750000000         2.410461169325738E-004
   26.3981250000000         2.432248798801574E-004
   26.6118750000000         2.459109401149507E-004
   26.8256250000000         2.493578831993014E-004
   27.0393750000000         2.538412999592808E-004
   27.2531250000000         2.596248197345595E-004
   27.4668750000000         2.669606067397427E-004
   27.6806250000000         2.760044781218583E-004
   27.8943750000000         2.868121308618682E-004
   28.1081250000000         2.993063802887352E-004
   28.3218750000000         3.132628213634163E-004
   28.5356250000000         3.283172824071730E-004
   28.7493750000000         3.439874523174854E-004
   28.9631250000000         3.597122337451709E-004
   29.1768750000000         3.749035306357299E-004
   29.3906250000000         3.890029538521239E-004
   29.6043750000000         4.015368391034427E-004
   29.8181250000000         4.121612253976850E-004
   30.0318750000000         4.206849013175900E-004
   30.2456250000000         4.270841471129779E-004
   30.4593750000000         4.314780523564625E-004
   30.6731250000000         4.341162479137491E-004
   30.8868750000000         4.353229363294509E-004
   31.1006250000000         4.354453063706021E-004
   31.3143750000000         4.348156249320313E-004
   31.5281250000000         4.336917036036294E-004
   31.7418750000000         4.322894397686901E-004
   31.9556250000000         4.307074114337472E-004
   32.1693750000000         4.290173321580310E-004
   32.3831250000000         4.272136466511731E-004
   32.5968750000000         4.253127941714447E-004
   32.8106250000000         4.233407348816463E-004
   33.0243750000000         4.213577704952685E-004
   33.2381250000000         4.195035210757872E-004
   33.4518750000000         4.179574146142864E-004
   33.6656250000000         4.169386087901110E-004
   33.8793750000000         4.166748073506930E-004
   34.0931250000000         4.173663767306032E-004
   34.3068750000000         4.191524801297436E-004
   34.5206250000000         4.220864895148591E-004
   34.7343750000000         4.261202546054215E-004
   34.9481250000000         4.311016521631726E-004
   35.1618750000000         4.367933329756279E-004
   35.3756250000000         4.429028489361944E-004
   35.5893750000000         4.491271305407343E-004
   35.8031250000000         4.551747407119645E-004
   36.0168750000000         4.608486763426802E-004
   36.2306250000000         4.660261121321098E-004
   36.4443750000000         4.707326973432241E-004
   36.6581250000000         4.750759391716616E-004
   36.8718750000000         4.793054451440673E-004
   37.0856250000000         4.836921837757493E-004
   37.2993750000000         4.885749347050633E-004
   37.5131250000000         4.942175414655503E-004
   37.7268750000000         5.008438703181624E-004
   37.9406250000000         5.085425788296543E-004
   38.1543750000000         5.172652331039234E-004
   38.3681250000000         5.268202538690707E-004
   38.5818750000000         5.368908219117104E-004
   38.7956250000000         5.470729891185208E-004
   39.0093750000000         5.569271395300218E-004
   39.2231250000000         5.660447383021833E-004
   39.4368750000000         5.740878499372572E-004
   39.6506250000000         5.808806210123582E-004
   39.8643750000000         5.864031963440763E-004
   40.0781250000000         5.908215842216205E-004
   40.2918750000000         5.944665995312674E-004
   40.5056250000000         5.977952880552769E-004
   40.7193750000000         6.013333261160773E-004
   40.9331250000000         6.056028757120752E-004
   41.1468750000000         6.110552945959581E-004
   41.3606250000000         6.180068936464679E-004
   41.5743750000000         6.266195238572074E-004
   41.7881250000000         6.368720111000531E-004
   42.0018750000000         6.485768943658531E-004
   42.2156250000000         6.614196656802081E-004
   42.4293750000000         6.750155809671873E-004
   42.6431250000000         6.889726121099502E-004
   42.8568750000000         7.029488086062112E-004
   43.0706250000000         7.166960443164073E-004
   43.2843750000000         7.300860259380456E-004
   43.4981250000000         7.430802547184981E-004
   43.7118750000000         7.557539075389250E-004
   43.9256250000000         7.681870432301901E-004
   44.1393750000000         7.804543101829304E-004
   44.3531250000000         7.925562366550448E-004
   44.5668750000000         8.043864205322556E-004
   44.7806250000000         8.157191631455627E-004
   44.9943750000000         8.262251419895614E-004
   45.2081250000000         8.355132425691673E-004
   45.4218750000000         8.431868593444204E-004
   45.6356250000000         8.489201067825199E-004
   45.8493750000000         8.525213835801676E-004
   46.0631250000000         8.539842123441512E-004
   46.2768750000000         8.535103494093690E-004
   46.4906250000000         8.515015511788259E-004
   46.7043750000000         8.485188797815585E-004
   46.9181250000000         8.452163265911890E-004
   47.1318750000000         8.422583972801132E-004
   47.3456250000000         8.402356647798882E-004
   47.5593750000000         8.395924997546169E-004
   47.7731250000000         8.405777227801225E-004
   47.9868750000000         8.432278372518805E-004
   48.2006250000000         8.473831842223021E-004
   48.4143750000000         8.527371288266151E-004
   48.6281250000000         8.588983415352278E-004
   48.8418750000000         8.654741970255550E-004
   49.0556250000000         8.721421040094439E-004
   49.2693750000000         8.787033960304759E-004
   49.4831250000000         8.851197822196339E-004
   49.6968750000000         8.914786054748919E-004
   49.9106250000000         8.980083820381519E-004
   50.1243750000000         9.049940278555175E-004
   50.3381250000000         9.127198937495738E-004
   50.5518750000000         9.214011013618716E-004
   50.7656250000000         9.311310230568432E-004
   50.9793750000000         9.418459137834922E-004
   51.1931250000000         9.533320962646929E-004
   51.4068750000000         9.652364708318189E-004
   51.6206250000000         9.771217223622261E-004
   51.8343750000000         9.885309240463603E-004
   52.0481250000000         9.990560045339788E-004
   52.2618750000000         1.008399567810829E-003
   52.4756250000000         1.016421445706911E-003
   52.6893750000000         1.023155024550281E-003
   52.9031250000000         1.028796175257857E-003
   53.1168750000000         1.033670900670938E-003
   53.3306250000000         1.038193703494646E-003
   53.5443750000000         1.042793244044279E-003
   53.7581250000000         1.047854788737880E-003
   53.9718750000000         1.053669157074960E-003
   54.1856250000000         1.060408762999460E-003
   54.3993750000000         1.068100150323771E-003
   54.6131250000000         1.076664049446585E-003
   54.8268750000000         1.085925898112005E-003
   55.0406250000000         1.095677082623847E-003
   55.2543750000000         1.105719286055716E-003
   55.4681250000000         1.115909214450589E-003
   55.6818750000000         1.126187665189079E-003
   55.8956250000000         1.136588640050237E-003
   56.1093750000000         1.147226391322893E-003
   56.3231250000000         1.158263070626278E-003
   56.5368750000000         1.169867279610715E-003
   56.7506250000000         1.182158700236344E-003
   56.9643750000000         1.195179595795270E-003
   57.1781250000000         1.208847006667258E-003
   57.3918750000000         1.222947234283356E-003
   57.6056250000000         1.237174441382792E-003
   57.8193750000000         1.251104105314369E-003
   58.0331250000000         1.264326822519277E-003
   58.2468750000000         1.276414527380442E-003
   58.4606250000000         1.287070262360168E-003
   58.6743750000000         1.296081381678033E-003
   58.8881250000000         1.303437931647570E-003
   59.1018750000000         1.309243929362407E-003
   59.3156250000000         1.313785188497667E-003
   59.5293750000000         1.317421673109660E-003
   59.7431250000000         1.320570221794169E-003
   59.9568750000000         1.323659227021498E-003
   60.1706250000000         1.327036887716940E-003
   60.3843750000000         1.330985009960270E-003
   60.5981250000000         1.335649585213563E-003
   60.8118750000000         1.341102292626396E-003
   61.0256250000000         1.347287706017891E-003
   61.2393750000000         1.354132627000793E-003
   61.4531250000000         1.361503268963320E-003
   61.6668750000000         1.369310079815353E-003
   61.8806250000000         1.377475050050755E-003
   62.0943750000000         1.385973891530337E-003
   62.3081250000000         1.394825578603193E-003
   62.5218750000000         1.404078500484320E-003
   62.7356250000000         1.413790227556512E-003
   62.9493750000000         1.424006066505205E-003
   63.1631250000000         1.434714478853047E-003
   63.3768750000000         1.445904627846615E-003
   63.5906250000000         1.457481731237809E-003
   63.8043750000000         1.469362855992055E-003
   64.0181250000000         1.481414266585004E-003
   64.2318750000000         1.493533491057018E-003
   64.4456250000000         1.505624128871447E-003
   64.6593750000000         1.517610304598237E-003
   64.8731250000000         1.529434547757879E-003
   65.0868750000000         1.541043716277766E-003
   65.3006250000000         1.552372865147466E-003
   65.5143750000000         1.563329903651601E-003
   65.7281250000000         1.573788348365590E-003
   65.9418750000000         1.583591319759680E-003
   66.1556250000000         1.592570491676568E-003
   66.3693750000000         1.600577824134853E-003
   66.5831250000000         1.607523131744388E-003
   66.7968750000000         1.613408760088555E-003
   67.0106250000000         1.618372437002059E-003
   67.2243750000000         1.622678051623918E-003
   67.4381250000000         1.626727312361653E-003
   67.6518750000000         1.631008920324648E-003
   67.8656250000000         1.636045881125748E-003
   68.0793750000000         1.642323044715347E-003
   68.2931250000000         1.650226859790146E-003
   68.5068750000000         1.659960395401023E-003
   68.7206250000000         1.671532195423307E-003
   68.9343750000000         1.684728583684352E-003
   69.1481250000000         1.699146769688056E-003
   69.3618750000000         1.714249877193347E-003
   69.5756250000000         1.729452853023032E-003
   69.7893750000000         1.744197611330006E-003
   70.0031250000000         1.758037130025755E-003
   70.2168750000000         1.770693491995148E-003
   70.4306250000000         1.782070745195789E-003
   70.6443750000000         1.792267679939679E-003
   70.8581250000000         1.801522007636539E-003
   71.0718750000000         1.810142353767092E-003
   71.2856250000000         1.818441394184449E-003
   71.4993750000000         1.826658933845137E-003
   71.7131250000000         1.834917038263342E-003
   71.9268750000000         1.843188520044138E-003
   72.1406250000000         1.851330818762427E-003
   72.3543750000000         1.859096419866182E-003
   72.5681250000000         1.866226032653709E-003
   72.7818750000000         1.872513392211721E-003
   72.9956250000000         1.877871788292060E-003
   73.2093750000000         1.882380751373425E-003
   73.4231250000000         1.886299849072852E-003
   73.6368750000000         1.890046748301677E-003
   73.8506250000000         1.894143308817115E-003
   74.0643750000000         1.899138661818842E-003
   74.2781250000000         1.905523505368662E-003
   74.4918750000000         1.913651279806232E-003
   74.7056250000000         1.923673483984800E-003
   74.9193750000000         1.935546850374134E-003
   75.1331250000000         1.949000572574975E-003
   75.3468750000000         1.963615941861395E-003
   75.5606250000000         1.978884559786914E-003
   75.7743750000000         1.994298718133284E-003
   75.9881250000000         2.009431520173109E-003
   76.2018750000000         2.024007862740120E-003
   76.4156250000000         2.037914894165158E-003
   76.6293750000000         2.051251484328172E-003
   76.8431250000000         2.064252271337164E-003
   77.0568750000000         2.077257923850546E-003
   77.2706250000000         2.090627211020385E-003
   77.4843750000000         2.104671284057389E-003
   77.6981250000000         2.119561124106926E-003
   77.9118750000000         2.135344999304441E-003
   78.1256250000000         2.151867141822140E-003
   78.3393750000000         2.168839023024738E-003
   78.5531250000000         2.185852797610454E-003
   78.7668750000000         2.202446466346974E-003
   78.9806250000000         2.218170936270736E-003
   79.1943750000000         2.232650864800818E-003
   79.4081250000000         2.245631730568479E-003
   79.6218750000000         2.257005555174327E-003
   79.8356250000000         2.266816004643600E-003
   80.0493750000000         2.275238960407790E-003
   80.2631250000000         2.282551009300848E-003
   80.4768750000000         2.289083012079024E-003
   80.6906250000000         2.295176381482455E-003
   80.9043750000000         2.301147429553096E-003
   81.1181250000000         2.307258649816159E-003
   81.3318750000000         2.313705802687791E-003
   81.5456250000000         2.320618061928055E-003
   81.7593750000000         2.328070210432327E-003
   81.9731250000000         2.336099940806427E-003
   82.1868750000000         2.344726880491095E-003
   82.4006250000000         2.353973700672850E-003
   82.6143750000000         2.363858633040078E-003
   82.8281250000000         2.374432598642617E-003
   83.0418750000000         2.385718172871371E-003
   83.2556250000000         2.397760440348702E-003
   83.4693750000000         2.410532985992366E-003
   83.6831250000000         2.423997069571915E-003
   83.8968750000000         2.438034885606065E-003
   84.1106250000000         2.452465110372470E-003
   84.3243750000000         2.467046974623026E-003
   84.5381250000000         2.481495709463533E-003
   84.7518750000000         2.495507081976496E-003
   84.9656250000000         2.508789184574070E-003
   85.1793750000000         2.521094782514469E-003
   85.3931250000000         2.532251791901891E-003
   85.6068750000000         2.542185744882103E-003
   85.8206250000000         2.550931446011693E-003
   86.0343750000000         2.558629749073674E-003
   86.2481250000000         2.565518403914874E-003
   86.4618750000000         2.571901075270026E-003
   86.6756250000000         2.578112557788145E-003
   86.8893750000000         2.584476038154734E-003
   87.1031250000000         2.591296540919451E-003
   87.3168750000000         2.598773707883103E-003
   87.5306250000000         2.607059148772640E-003
   87.7443750000000         2.616174455142097E-003
   87.9581250000000         2.626107657732811E-003
   88.1718750000000         2.636749591272080E-003
   88.3856250000000         2.648005464401147E-003
   88.5993750000000         2.659766391639967E-003
   88.8131250000000         2.671974679283649E-003
   89.0268750000000         2.684633760230084E-003
   89.2406250000000         2.697818109645295E-003
   89.4543750000000         2.711664267794805E-003
   89.6681250000000         2.726349705988907E-003
   89.8818750000000         2.742060600973803E-003
   90.0956250000000         2.758953614718357E-003
   90.3093750000000         2.777124898960753E-003
   90.5231250000000         2.796571127448395E-003
   90.7368750000000         2.817181380582707E-003
   90.9506250000000         2.838728649164724E-003
   91.1643750000000         2.860895596794957E-003
   91.3781250000000         2.883294956682003E-003
   91.5918750000000         2.905512771545074E-003
   91.8056250000000         2.927152072411044E-003
   92.0193750000000         2.947875134205618E-003
   92.2331250000000         2.967436772027631E-003
   92.4468750000000         2.985706739854700E-003
   92.6606250000000         3.002674737772558E-003
   92.8743750000000         3.018441576702521E-003
   93.0881250000000         3.033195534428912E-003
   93.3018750000000         3.047183254334175E-003
   93.5156250000000         3.060667346713197E-003
   93.7293750000000         3.073901115641034E-003
   93.9431250000000         3.087087144106370E-003
   94.1568750000000         3.100375705891330E-003
   94.3706250000000         3.113847492336605E-003
   94.5843750000000         3.127517253510145E-003
   94.7981250000000         3.141359357853748E-003
   95.0118750000000         3.155324722655698E-003
   95.2256250000000         3.169367328569178E-003
   95.4393750000000         3.183474205253998E-003
   95.6531250000000         3.197667649410154E-003
   95.8668750000000         3.212035433696412E-003
   96.0806250000000         3.226713184286275E-003
   96.2943750000000         3.241869515714843E-003
   96.5081250000000         3.257706680471777E-003
   96.7218750000000         3.274370895252454E-003
   96.9356250000000         3.291993555298637E-003
   97.1493750000000         3.310604408178193E-003
   97.3631250000000         3.330135193856225E-003
   97.5768750000000         3.350403832089147E-003
   97.7906250000000         3.371126227516829E-003
   98.0043750000000         3.391941192742196E-003
   98.2181250000000         3.412448444136043E-003
   98.4318750000000         3.432257999212929E-003
   98.6456250000000         3.451040732342101E-003
   98.8593750000000         3.468573756956767E-003
   99.0731250000000         3.484771449956231E-003
   99.2868750000000         3.499696345440190E-003
   99.5006250000000         3.513545379363427E-003
   99.7143750000000         3.526612786006383E-003
   99.9281250000000         3.539233086150349E-003
   100.141875000000         3.551711964501877E-003
   100.355625000000         3.564259238450862E-003
   100.569375000000         3.576928494571460E-003
   100.783125000000         3.589585836931402E-003
   100.996875000000         3.601923435836046E-003
   101.210625000000         3.613439470158821E-003
   101.424375000000         3.623576585592625E-003
   101.638125000000         3.631722137338716E-003
   101.851875000000         3.637389234172807E-003
   102.065625000000         3.640238372916929E-003
   102.279375000000         3.640189597733946E-003
   102.493125000000         3.637448545977787E-003
   102.706875000000         3.632502476927309E-003
   102.920625000000         3.626073521962488E-003
   103.134375000000         3.619035716007810E-003
   103.348125000000         3.612301162940974E-003
   103.561875000000         3.606698667082851E-003
   103.775625000000         3.602889776395842E-003
   103.989375000000         3.601255910184270E-003
   104.203125000000         3.601877921683074E-003
   104.416875000000         3.604525834432623E-003
   104.630625000000         3.608718067849237E-003
   104.844375000000         3.613793782696805E-003
   105.058125000000         3.619035254349012E-003
   105.271875000000         3.623762316815599E-003
   105.485625000000         3.627411776232905E-003
   105.699375000000         3.629638623961171E-003
   105.913125000000         3.630297632996894E-003
   106.126875000000         3.629475527585892E-003
   106.340625000000         3.627423536340409E-003
   106.554375000000         3.624495950103377E-003
   106.768125000000         3.621077352673107E-003
   106.981875000000         3.617505617749373E-003
   107.195625000000         3.614033492003073E-003
   107.409375000000         3.610770845074238E-003
   107.623125000000         3.607768700825347E-003
   107.836875000000         3.604944524296310E-003
   108.050625000000         3.602245546546949E-003
   108.264375000000         3.599585964731206E-003
   108.478125000000         3.597003470103347E-003
   108.691875000000         3.594582456455294E-003
   108.905625000000         3.592544571935129E-003
   109.119375000000         3.591163473559148E-003
   109.333125000000         3.590749221968029E-003
   109.546875000000         3.591593695356918E-003
   109.760625000000         3.593905962871603E-003
   109.974375000000         3.597773072143534E-003
   110.188125000000         3.603136045033336E-003
   110.401875000000         3.609791046131643E-003
   110.615625000000         3.617418015470439E-003
   110.829375000000         3.625628849359429E-003
   111.043125000000         3.634024936034994E-003
   111.256875000000         3.642256876575304E-003
   111.470625000000         3.650074594821097E-003
   111.684375000000         3.657356890548595E-003
   111.898125000000         3.664118132707516E-003
   112.111875000000         3.670489393947533E-003
   112.325625000000         3.676680427718292E-003
   112.539375000000         3.682929184264971E-003
   112.753125000000         3.689449248922333E-003
   112.966875000000         3.696386728481358E-003
   113.180625000000         3.703790073920968E-003
   113.394375000000         3.711603669849131E-003
   113.608125000000         3.719680134110759E-003
   113.821875000000         3.727811089767615E-003
   114.035625000000         3.735767390235543E-003
   114.249375000000         3.743341522059772E-003
   114.463125000000         3.750383121524918E-003
   114.676875000000         3.756819835982531E-003
   114.890625000000         3.762661481312029E-003
   115.104375000000         3.767987697194930E-003
   115.318125000000         3.772921366160462E-003
   115.531875000000         3.777595040404568E-003
   115.745625000000         3.782117626723961E-003
   115.959375000000         3.786549554512184E-003
   116.173125000000         3.790891397603790E-003
   116.386875000000         3.795088160545709E-003
   116.600625000000         3.799048973893674E-003
   116.814375000000         3.802670642400570E-003
   117.028125000000         3.805899751832678E-003
   117.241875000000         3.808707575135330E-003
   117.455625000000         3.811173733612603E-003
   117.669375000000         3.813424801219219E-003
   117.883125000000         3.815680923122075E-003
   118.096875000000         3.818171632034497E-003
   118.310625000000         3.821129029520231E-003
   118.524375000000         3.824727677514566E-003
   118.738125000000         3.829059513433279E-003
   118.951875000000         3.834103346882224E-003
   119.165625000000         3.839723833459128E-003
   119.379375000000         3.845690472186978E-003
   119.593125000000         3.851715263339525E-003
   119.806875000000         3.857504299151912E-003
   120.020625000000         3.862813716570857E-003
   120.234375000000         3.867504883302044E-003
   120.448125000000         3.871552502057618E-003
   120.661875000000         3.875109324586034E-003
   120.875625000000         3.878444645969473E-003
   121.089375000000         3.881932115568750E-003
   121.303125000000         3.885993616925098E-003
   121.516875000000         3.891035430607757E-003
   121.730625000000         3.897390274951314E-003
   121.944375000000         3.905267607730494E-003
   122.158125000000         3.914726873385314E-003
   122.371875000000         3.925674077569455E-003
   122.585625000000         3.937882849437192E-003
   122.799375000000         3.951034020199963E-003
   123.013125000000         3.964767364419845E-003
   123.226875000000         3.978734132424736E-003
   123.440625000000         3.992639288164236E-003
   123.654375000000         4.006270511239857E-003
   123.868125000000         4.019502280318239E-003