  -1.60312500000000        -1.743158077263354E-020
  -1.38937500000000         4.051499619060862E-018
  -1.17562500000000         3.758506837870841E-017
 -0.961875000000000         2.111130153433235E-016
 -0.748125000000000         9.225070846861677E-016
 -0.534375000000000         3.368425616608163E-015
 -0.320625000000000         1.058718307234681E-014
 -0.106875000000000         2.916466006446012E-014
  0.106875000000000         7.146253628058803E-014
  0.320625000000000         1.579059647040970E-013
  0.534375000000000         3.187690084671357E-013
  0.748125000000000         5.950617446664862E-013
  0.961875000000000         1.038280077143732E-012
   1.17562500000000         1.708845734737706E-012
   1.38937500000000         2.672825307173967E-012
   1.60312500000000         3.996494955310358E-012
   1.81687500000000         5.738732671469987E-012
   2.03062500000000         7.941398774309937E-012
   2.24437500000000         1.061856153602845E-011
   2.45812500000000         1.374577321061358E-011
   2.67187500000000         1.725093394518359E-011
   2.88562500000000         2.100843734968226E-011
   3.09937500000000         2.483789268873289E-011
   3.31312500000000         2.850869666501392E-011
   3.52687500000000         3.175045224970244E-011
   3.74062500000000         3.426885808225978E-011
   3.95437500000000         3.576554434435887E-011
   4.16812500000000         3.595969617184548E-011
   4.38187500000000         3.460843331705342E-011
   4.59562500000000         3.152325429574627E-011
   4.80937500000000         2.658011340096845E-011
   5.02312500000000         1.972116560648427E-011
   5.23687500000000         1.094842691101075E-011
   5.45062500000000         3.105266469048666E-013
   5.66437500000000        -1.211489420982420E-011
   5.87812500000000        -2.623948569474024E-011
   6.09187500000000        -4.197895587074600E-011
   6.30562500000000        -5.926075032719531E-011
   6.51937500000000        -7.802187223392517E-011
   6.73312500000000        -9.819614876462247E-011
   6.94687500000000        -1.196925480547896E-010
   7.16062500000000        -1.423679536104678E-010
   7.37437500000000        -1.659996674613550E-010
   7.58812500000000        -1.902637771428628E-010
   7.80187500000000        -2.147248669402905E-010
   8.01562500000000        -2.388415391615846E-010
   8.22937500000000        -2.619898136611716E-010
   8.44312500000000        -2.835025511120413E-010
   8.65687500000000        -3.027208440355465E-010
   8.87062500000000        -3.190504555596325E-010
   9.08437500000000        -3.320145927889587E-010
   9.29812500000000        -3.412946001011745E-010
   9.51187500000000        -3.467511630672734E-010
   9.72562500000000        -3.484225543075256E-010
   9.93937500000000        -3.464993386483356E-010
   10.1531250000000        -3.412788212288178E-010
   10.3668750000000        -3.331073885294527E-010
   10.5806250000000        -3.223200371617143E-010
   10.7943750000000        -3.091872372859152E-010
   11.0081250000000        -2.938782878284337E-010
   11.2218750000000        -2.764471307936172E-010
   11.4356250000000        -2.568424905040189E-010
   11.6493750000000        -2.349391802065033E-010
   11.8631250000000        -2.105840743087300E-010
   12.0768750000000        -1.836466141873341E-010
   12.2906250000000        -1.540629855635771E-010
   12.5043750000000        -1.218650678896988E-010
   12.7181250000000        -8.718671030888776E-011
   12.9318750000000        -5.024538308150592E-011
   13.1456250000000        -1.130254586065229E-011
   13.3593750000000         2.939063371803595E-011
   13.5731250000000         7.165142455209702E-011
   13.7868750000000         1.154164592353619E-010
   14.0006250000000         1.607744405862451E-010
   14.2143750000000         2.079732630451675E-010
   14.4281250000000         2.573995388206060E-010
   14.6418750000000         3.095318843804029E-010
   14.8556250000000         3.648751052391982E-010
   15.0693750000000         4.238864415699272E-010
   15.2831250000000         4.869053555405431E-010
   15.4968750000000         5.540978960589169E-010
   15.7106250000000         6.254245020279215E-010
   15.9243750000000         7.006354964803577E-010
   16.1381250000000         7.792934938046656E-010
   16.3518750000000         8.608185011982287E-010
   16.5656250000000         9.445469531690016E-010
   16.7793750000000         1.029794567004899E-009
   16.9931250000000         1.115914318138627E-009
   17.2068750000000         1.202340977847576E-009
   17.4206250000000         1.288618170449147E-009
   17.6343750000000         1.374407451911282E-009
   17.8481250000000         1.459481272069483E-009
   18.0618750000000         1.543705409094623E-009
   18.2756250000000         1.627016834484602E-009
   18.4893750000000         1.709402366154845E-009
   18.7031250000000         1.790883035986949E-009
   18.9168750000000         1.871505558443884E-009
   19.1306250000000         1.951340976222543E-009
   19.3443750000000         2.030488519985081E-009
   19.5581250000000         2.109080987780462E-009
   19.7718750000000         2.187289556187335E-009
   19.9856250000000         2.265325101389571E-009
   20.1993750000000         2.343435542063877E-009
   20.4131250000000         2.421900343678671E-009
   20.6268750000000         2.501023501218706E-009
   20.8406250000000         2.581127833910499E-009
   21.0543750000000         2.662552131072541E-009
   21.2681250000000         2.745651348594708E-009
   21.4818750000000         2.830799411985347E-009
   21.6956250000000         2.918391982302959E-009
   21.9093750000000         3.008845360557411E-009
   22.1231250000000         3.102588406312958E-009
   22.3368750000000         3.200045226651159E-009
   22.5506250000000         3.301608517107551E-009
   22.7643750000000         3.407605666275045E-009
   22.9781250000000         3.518262617939599E-009
   23.1918750000000         3.633672289064682E-009
   23.4056250000000         3.753774578125752E-009
   23.6193750000000         3.878353900395860E-009
   23.8331250000000         4.007058203991955E-009
   24.0468750000000         4.139439488836601E-009
   24.2606250000000         4.275011732154238E-009
   24.4743750000000         4.413318853169402E-009
   24.6881250000000         4.554002594494908E-009
   24.9018750000000         4.696859542796615E-009
   25.1156250000000         4.841878115353827E-009
   25.3293750000000         4.989249218747183E-009
   25.5431250000000         5.139348588332333E-009
   25.7568750000000         5.292694202256540E-009
   25.9706250000000         5.449886494671872E-009
   26.1843750000000         5.611541971129109E-009
   26.3981250000000         5.778231590126855E-009
   26.6118750000000         5.950434815684435E-009
   26.8256250000000         6.128516695376164E-009
   27.0393750000000         6.312729754496671E-009
   27.2531250000000         6.503238390079305E-009
   27.4668750000000         6.700158866513811E-009
   27.6806250000000         6.903603974910043E-009
   27.8943750000000         7.113720685356554E-009
   28.1081250000000         7.330711447908667E-009
   28.3218750000000         7.554832157702783E-009
   28.5356250000000         7.786364587743165E-009
   28.7493750000000         8.025567210073393E-009
   28.9631250000000         8.272613042587063E-009
   29.1768750000000         8.527526049106940E-009
   29.3906250000000         8.790128718820653E-009
   29.6043750000000         9.060012324830604E-009
   29.8181250000000         9.336538252742303E-009
   30.0318750000000         9.618872975041523E-009
   30.2456250000000         9.906053968080169E-009
   30.4593750000000         1.019707871713062E-008
   30.6731250000000         1.049100417086987E-008
   30.8868750000000         1.078704286820038E-008
   31.1006250000000         1.108464173545465E-008
   31.3143750000000         1.138353252408922E-008
   31.5281250000000         1.168374678721931E-008
   31.7418750000000         1.198559370528352E-008
   31.9556250000000         1.228960471190630E-008
   32.1693750000000         1.259645336415187E-008
   32.3831250000000         1.290686225165309E-008
   32.5968750000000         1.322150964236933E-008
   32.8106250000000         1.354094842571932E-008
   33.0243750000000         1.386554754570790E-008
   33.2381250000000         1.419546159296965E-008
   33.4518750000000         1.453063059508608E-008
   33.6656250000000         1.487080774363793E-008
   33.8793750000000         1.521560889954095E-008
   34.0931250000000         1.556457505223824E-008
   34.3068750000000         1.591723800976891E-008
   34.5206250000000         1.627318045600343E-008
   34.7343750000000         1.663208224130059E-008
   34.9481250000000         1.699374789924684E-008
   35.1618750000000         1.735811365331809E-008
   35.3756250000000         1.772523517855730E-008
   35.5893750000000         1.809526047626527E-008
   35.8031250000000         1.846839368890352E-008
   36.0168750000000         1.884485732413837E-008
   36.2306250000000         1.922486003318801E-008
   36.4443750000000         1.960857580069278E-008
   36.6581250000000         1.999613799059085E-008
   36.8718750000000         2.038764917130883E-008
   37.0856250000000         2.078320508436514E-008
   37.2993750000000         2.118292819277921E-008
   37.5131250000000         2.158700400945869E-008
   37.7268750000000         2.199571296353383E-008
   37.9406250000000         2.240945128510183E-008
   38.1543750000000         2.282873508040494E-008
   38.3681250000000         2.325418513175885E-008
   38.5818750000000         2.368649270038117E-008
   38.7956250000000         2.412636986379326E-008
   39.0093750000000         2.457449109879180E-008
   39.2231250000000         2.503143397271971E-008
   39.4368750000000         2.549762764632439E-008
   39.6506250000000         2.597331700980662E-008
   39.8643750000000         2.645854749603792E-008
   40.0781250000000         2.695317265014184E-008
   40.2918750000000         2.745688312871195E-008
   40.5056250000000         2.796925243004669E-008
   40.7193750000000         2.848979215723175E-008
   40.9331250000000         2.901800873423192E-008
   41.1468750000000         2.955345467891799E-008
   41.3606250000000         3.009576834061143E-008
   41.5743750000000         3.064469967171120E-008
   41.7881250000000         3.120012344127610E-008
   42.0018750000000         3.176204224867552E-008
   42.2156250000000         3.233058394428098E-008
   42.4293750000000         3.290599947352274E-008
   42.6431250000000         3.348866339355287E-008
   42.8568750000000         3.407907700818234E-008
   43.0706250000000         3.467787096132013E-008
   43.2843750000000         3.528579991156150E-008
   43.4981250000000         3.590372075137393E-008
   43.7118750000000         3.653254523557730E-008
   43.9256250000000         3.717316122879634E-008
   44.1393750000000         3.782632224174302E-008
   44.3531250000000         3.849251209932004E-008
   44.5668750000000         3.917180051258585E-008
   44.7806250000000         3.986371220365064E-008
   44.9943750000000         4.056713718381380E-008
   45.2081250000000         4.128031075289377E-008
   45.4218750000000         4.200088657472030E-008
   45.6356250000000         4.272611641173963E-008
   45.8493750000000         4.345313435429749E-008
   46.0631250000000         4.417932540367026E-008
   46.2768750000000         4.490273964753397E-008
   46.4906250000000         4.562249631034244E-008
   46.7043750000000         4.633911250887536E-008
   46.9181250000000         4.705468962186330E-008
   47.1318750000000         4.777289916543166E-008
   47.3456250000000         4.849873091062272E-008
   47.5593750000000         4.923799520302949E-008
   47.7731250000000         4.999660919997691E-008
   47.9868750000000         5.077973450523416E-008
   48.2006250000000         5.159086930641518E-008
   48.4143750000000         5.243102386602344E-008
   48.6281250000000         5.329811684675336E-008
   48.8418750000000         5.418672174571252E-008
   49.0556250000000         5.508826142301657E-008
   49.2693750000000         5.599169895217247E-008
   49.4831250000000         5.688470680348119E-008
   49.6968750000000         5.775522216043808E-008
   49.9106250000000         5.859322594619136E-008
   50.1243750000000         5.939252284970433E-008
   50.3381250000000         6.015226481001761E-008
   50.5518750000000         6.087795817743735E-008
   50.7656250000000         6.158172912477321E-008
   50.9793750000000         6.228169514195383E-008
   51.1931250000000         6.300039689071791E-008
   51.4068750000000         6.376237341583166E-008
   51.6206250000000         6.459109782118111E-008
   51.8343750000000         6.550561469467240E-008
   52.0481250000000         6.651731143819193E-008
   52.2618750000000         6.762729728478912E-008
   52.4756250000000         6.882484340803864E-008
   52.6893750000000         7.008724875559865E-008
   52.9031250000000         7.138134418818248E-008
   53.1168750000000         7.266664272332029E-008
   53.3306250000000         7.389991258855472E-008
   53.5443750000000         7.504071964545958E-008
   53.7581250000000         7.605729007295105E-008
   53.9718750000000         7.693191623373570E-008
   54.1856250000000         7.766509553413506E-008
   54.3993750000000         7.827767009403015E-008
   54.6131250000000         7.881042551146398E-008
   54.8268750000000         7.932089935945593E-008
   55.0406250000000         7.987751258748671E-008
   55.2543750000000         8.055152722239276E-008
   55.4681250000000         8.140769877229320E-008
   55.6818750000000         8.249477632785754E-008
   55.8956250000000         8.383715808813459E-008
   56.1093750000000         8.542899635934977E-008
   56.3231250000000         8.723184735727992E-008
   56.5368750000000         8.917658359895975E-008
   56.7506250000000         9.116976316852692E-008
   56.9643750000000         9.310404137164013E-008
   57.1781250000000         9.487159093663127E-008
   57.3918750000000         9.637895496021017E-008
   57.6056250000000         9.756138137495931E-008
   57.8193750000000         9.839454901935384E-008
   58.0331250000000         9.890174057132205E-008
   58.2468750000000         9.915496052083911E-008
   58.4606250000000         9.926920368271345E-008
   58.6743750000000         9.938998189340329E-008
   58.8881250000000         9.967520575206457E-008
   59.1018750000000         1.002734583764251E-007
   59.3156250000000         1.013014510641946E-007
   59.5293750000000         1.028238826289903E-007
   59.7431250000000         1.048389355598910E-007
   59.9568750000000         1.072721818850574E-007
   60.1706250000000         1.099807497451891E-007
   60.3843750000000         1.127682982150011E-007
   60.5981250000000         1.154098056438847E-007
   60.8118750000000         1.176835920106274E-007
   61.0256250000000         1.194065955020551E-007
   61.2393750000000         1.204679340815257E-007
   61.4531250000000         1.208554024582024E-007
   61.6668750000000         1.206699170876987E-007
   61.8806250000000         1.201240702002951E-007
   62.0943750000000         1.195228250085465E-007
   62.3081250000000         1.192268021803831E-007
   62.5218750000000         1.196012933793396E-007
   62.7356250000000         1.209567386165032E-007
   62.9493750000000         1.234885334277156E-007
   63.1631250000000         1.272253108713385E-007
   63.3768750000000         1.319949723774106E-007
   63.5906250000000         1.374165349684814E-007
   63.8043750000000         1.429232993833712E-007
   64.0181250000000         1.478190932394349E-007
   64.2318750000000         1.513647620007161E-007
   64.4456250000000         1.528871929187169E-007
   64.6593750000000         1.518986031275584E-007
   64.8731250000000         1.482102917400902E-007
   65.0868750000000         1.420231920316415E-007
   65.3006250000000         1.339778743512219E-007
   65.5143750000000         1.251494350323605E-007
   65.7281250000000         1.169779578232571E-007
   65.9418750000000         1.111326190918709E-007
   66.1556250000000         1.093163618737660E-007
   66.3693750000000         1.130274229139963E-007
   66.5831250000000         1.233026988097149E-007
   66.7968750000000         1.404747278078862E-007
   67.0106250000000         1.639777537640031E-007
   67.2243750000000         1.922379725406173E-007
   67.4381250000000         2.226780536828161E-007
   67.6518750000000         2.518563107498372E-007
   67.8656250000000         2.757469749216901E-007
   68.0793750000000         2.901510222319289E-007
   68.2931250000000         2.912085800921559E-007
   68.5068750000000         2.759661705123005E-007
   68.7206250000000         2.429372346449384E-007
   68.9343750000000         1.925847913222022E-007
   69.1481250000000         1.276526660256356E-007
   69.3618750000000         5.327785354421685E-008
   69.5756250000000        -2.316821122065236E-008
   69.7893750000000        -9.253786949654115E-008
   70.0031250000000        -1.446624330188661E-007
   70.2168750000000        -1.693664521737114E-007
   70.4306250000000        -1.576667331387392E-007
   70.6443750000000        -1.030483869234549E-007
   70.8581250000000        -2.684084879927309E-009
   71.0718750000000         1.415521253230893E-007
   71.2856250000000         3.224253589399418E-007
   71.4993750000000         5.271673547024461E-007
   71.7131250000000         7.378899619201900E-007
   71.9268750000000         9.326345136779765E-007
   72.1406250000000         1.087045139242696E-006
   72.3543750000000         1.176584705465767E-006
   72.5681250000000         1.179141595948395E-006
   72.7818750000000         1.077811312524488E-006
   72.9956250000000         8.635865379071124E-007
   73.2093750000000         5.376599216663348E-007
   73.4231250000000         1.130412097986426E-007
   73.6368750000000        -3.847818839991971E-007
   73.8506250000000        -9.183504737358610E-007
   74.0643750000000        -1.440031858797676E-006
   74.2781250000000        -1.895117814027488E-006
   74.4918750000000        -2.226105971143114E-006
   74.7056250000000        -2.377913391431443E-006
   74.9193750000000        -2.303646054393909E-006
   75.1331250000000        -1.970443462611464E-006
   75.3468750000000        -1.364846466000893E-006
   75.5606250000000        -4.971094500972645E-007
   75.7743750000000         5.960971658896747E-007
   75.9881250000000         1.851068108640675E-006
   76.2018750000000         3.178868104536505E-006
   76.4156250000000         4.469719019067721E-006
   76.6293750000000         5.599910701008623E-006
   76.8431250000000         6.440940002914068E-006
   77.0568750000000         6.870345186306702E-006
   77.2706250000000         6.783486708309521E-006
   77.4843750000000         6.105351758079341E-006
   77.6981250000000         4.801348643238222E-006
   77.9118750000000         2.886024333805664E-006
   78.1256250000000         4.286948729288995E-007
   78.3393750000000        -2.444872111346259E-006
   78.5531250000000        -5.555344663519379E-006
   78.7668750000000        -8.677588871647864E-006
   78.9806250000000        -1.155323689979604E-005
   79.1943750000000        -1.390758409717226E-005
   79.4081250000000        -1.546992997343248E-005
   79.6218750000000        -1.599610125852159E-005
   79.8356250000000        -1.529158443505345E-005
   80.0493750000000        -1.323348111475634E-005
   80.2631250000000        -9.789408167209676E-006
   80.4768750000000        -5.031513551609722E-006
   80.6906250000000         8.560234668433573E-007
   80.9043750000000         7.577295535046385E-006
   81.1181250000000         1.473358695636628E-005
   81.3318750000000         2.184114291295119E-005
   81.5456250000000         2.835737140293647E-005
   81.7593750000000         3.371438559916732E-005
   81.9731250000000         3.735814185110364E-005
   82.1868750000000         3.879084971202330E-005
   82.4006250000000         3.761387383089254E-005
   82.6143750000000         3.356805627494650E-005
   82.8281250000000         2.656829562259018E-005
   83.0418750000000         1.672934755988127E-005
   83.2556250000000         4.380167797503974E-006
   83.4693750000000        -9.935306874396854E-006
   83.6831250000000        -2.547227456707143E-005
   83.8968750000000        -4.131449365812990E-005
   84.1106250000000        -5.641840674236586E-005
   84.3243750000000        -6.967029272769931E-005
   84.5381250000000        -7.995375078025766E-005
   84.7518750000000        -8.622390002692247E-005
   84.9656250000000        -8.758393463373194E-005
   85.1793750000000        -8.335916687431610E-005
   85.3931250000000        -7.316347064105070E-005
   85.6068750000000        -5.695313794816963E-005
   85.8206250000000        -3.506359555106014E-005
   86.0343750000000        -8.225190978593537E-006
   86.2481250000000         2.244468158127767E-005
   86.4618750000000         5.547453462643423E-005
   86.6756250000000         8.909674772516808E-005
   86.8893750000000         1.213288747315758E-004
   87.1031250000000         1.500750479263050E-004
   87.3168750000000         1.732427384663235E-004
   87.5306250000000         1.888688410944298E-004
   87.7443750000000         1.952480525531357E-004
   87.9581250000000         1.910558884196963E-004
   88.1718750000000         1.754584944756753E-004
   88.3856250000000         1.482016951851637E-004
   88.5993750000000         1.096724951355791E-004
   88.8131250000000         6.092749158018867E-005
   89.0268750000000         3.684319384658973E-006
   89.2406250000000        -5.972574374555762E-005
   89.4543750000000        -1.264436378477118E-004
   89.6681250000000        -1.932041135280635E-004
   89.8818750000000        -2.564879915832597E-004
   90.0956250000000        -3.126978690814507E-004
   90.3093750000000        -3.583482218591868E-004
   90.5231250000000        -3.902594864477195E-004
   90.7368750000000        -4.057449175771860E-004
   90.9506250000000        -4.027788983798870E-004
   91.1643750000000        -3.801359792846105E-004
   91.3781250000000        -3.374912443129545E-004
   91.5918750000000        -2.754746078517455E-004
   91.8056250000000        -1.956742395396195E-004
   92.0193750000000        -1.005873611975719E-004
   92.2331250000000         6.480021977198138E-006
   92.4468750000000         1.215595151470402E-004
   92.6606250000000         2.402047039817569E-004
   92.8743750000000         3.577025513987990E-004
   93.0881250000000         4.692986992072035E-004
   93.3018750000000         5.704222035604140E-004
   93.5156250000000         6.568948524347967E-004
   93.7293750000000         7.251108861501055E-004
   93.9431250000000         7.721746802941577E-004
   94.1568750000000         7.959866871705872E-004
   94.3706250000000         7.952715198910776E-004
   94.5843750000000         7.695462807669622E-004
   94.7981250000000         7.190317982966694E-004
   95.0118750000000         6.445140154370004E-004
   95.2256250000000         5.471670144464029E-004
   95.4393750000000         4.283527228508134E-004
   95.6531250000000         2.894149051643850E-004
   95.8668750000000         1.314863488008588E-004
   96.0806250000000        -4.467197417957856E-005
   96.2943750000000        -2.387826179376849E-004
   96.5081250000000        -4.511001875514569E-004
   96.7218750000000        -6.823870170211727E-004
   96.9356250000000        -9.338117761885237E-004
   97.1493750000000        -1.206772893380931E-003
   97.3631250000000        -1.502655032726851E-003
   97.5768750000000        -1.822532983271078E-003
   97.7906250000000        -2.166842720901462E-003
   98.0043750000000        -2.535043645007467E-003
   98.2181250000000        -2.925298688801724E-003
   98.4318750000000        -3.334199874135678E-003
   98.6456250000000        -3.756565772103173E-003
   98.8593750000000        -4.185334224431949E-003
   99.0731250000000        -4.611568708900041E-003
   99.2868750000000        -5.024590167085299E-003
   99.5006250000000        -5.412238351462884E-003
   99.7143750000000        -5.761258286263293E-003
   99.9281250000000        -6.057798831879809E-003
   100.141875000000        -6.288002180308672E-003
   100.355625000000        -6.438655957189463E-003
   100.569375000000        -6.497873975954260E-003
   100.783125000000        -6.455767999979741E-003
   100.996875000000        -6.305071415575170E-003
   101.210625000000        -6.041676654944389E-003
   101.424375000000        -5.665051532749613E-003
   101.638125000000        -5.178505217369123E-003
   101.851875000000        -4.589282049482435E-003
   102.065625000000        -3.908470423348730E-003
   102.279375000000        -3.150723940594699E-003
   102.493125000000        -2.333802449414876E-003
   102.706875000000        -1.477950783334532E-003
   102.920625000000        -6.051424121911359E-004
   103.134375000000         2.617767421192632E-004
   103.348125000000         1.100002870300491E-003
   103.561875000000         1.887701776697244E-003
   103.775625000000         2.604902348402234E-003
   103.989375000000         3.234310079854125E-003
   104.203125000000         3.761998349092727E-003
   104.416875000000         4.177941136235177E-003
   104.630625000000         4.476358955971346E-003
   104.844375000000         4.655859528779431E-003
   105.058125000000         4.719365629199981E-003
   105.271875000000         4.673834042300610E-003
   105.485625000000         4.529781007815690E-003
   105.699375000000         4.300640300772044E-003
   105.913125000000         4.001989574484614E-003
   106.126875000000         3.650688217166173E-003
   106.340625000000         3.263975272508041E-003
   106.554375000000         2.858578586392506E-003
   106.768125000000         2.449886043219124E-003
   106.981875000000         2.051226479665992E-003
   107.195625000000         1.673301712929205E-003
   107.409375000000         1.323802368051236E-003
   107.623125000000         1.007229273677542E-003
   107.836875000000         7.249297052466851E-004
   108.050625000000         4.753443993516589E-004
   108.264375000000         2.544478390662508E-004
   108.478125000000         5.635165526949957E-005
   108.691875000000        -1.259700677801788E-004
   108.905625000000        -2.998834874292001E-004
   109.119375000000        -4.722812835048208E-004
   109.333125000000        -6.488102964316851E-004
   109.546875000000        -8.331967123145084E-004
   109.760625000000        -1.026719601521210E-003
   109.974375000000        -1.227874653288106E-003
   110.188125000000        -1.432257877771047E-003
   110.401875000000        -1.632684575419056E-003
   110.615625000000        -1.819542902910438E-003
   110.829375000000        -1.981364936611722E-003
   111.043125000000        -2.105582362238883E-003
   111.256875000000        -2.179419912290577E-003
   111.470625000000        -2.190868455594191E-003
   111.684375000000        -2.129672079023621E-003
   111.898125000000        -1.988260223297720E-003
   112.111875000000        -1.762557292566092E-003
   112.325625000000        -1.452608183719436E-003
   112.539375000000        -1.062968580121271E-003
   112.753125000000        -6.028230148968923E-004
   112.966875000000        -8.581074277785262E-005
   113.180625000000         4.704417396698032E-004
   113.394375000000         1.045063365864041E-003
   113.608125000000         1.614919666323931E-003
   113.821875000000         2.155779241700313E-003
   114.035625000000         2.643599036351340E-003
   114.249375000000         3.055852689283984E-003
   114.463125000000         3.372821765730890E-003
   114.676875000000         3.578770269922113E-003
   114.890625000000         3.662928494639955E-003
   115.104375000000         3.620222627832118E-003
   115.318125000000         3.451700956480229E-003
   115.531875000000         3.164625071911478E-003
   115.745625000000         2.772214086935160E-003
   115.959375000000         2.293050307893072E-003
   116.173125000000         1.750174815950458E-003
   116.386875000000         1.169919801469202E-003
   116.600625000000         5.805401835393695E-004
   116.814375000000         1.071913619007670E-005
   117.028125000000        -5.119700355494285E-004
   117.241875000000        -9.625600833611535E-004
   117.455625000000        -1.320060155430741E-003
   117.669375000000        -1.568622740663919E-003
   117.883125000000        -1.698440343866383E-003
   118.096875000000        -1.706319401918560E-003
   118.310625000000        -1.595896258962900E-003
   118.524375000000        -1.377479326141090E-003
   118.738125000000        -1.067521840669090E-003
   118.951875000000        -6.877498482228400E-004
   119.165625000000        -2.639891047218666E-004
   119.379375000000         1.752484760172704E-004
   119.593125000000         6.003443205853588E-004
   119.806875000000         9.822340660461597E-004
   120.020625000000         1.294059566134899E-003
   120.234375000000         1.512720919302761E-003
   120.448125000000         1.620241450334610E-003
   120.661875000000         1.604867436986708E-003
   120.875625000000         1.461837677073431E-003
   121.089375000000         1.193775118931158E-003
   121.303125000000         8.106728784588977E-004
   121.516875000000         3.294689942483308E-004
   121.730625000000        -2.267729598646571E-004
   121.944375000000        -8.300380478520474E-004
   122.158125000000        -1.448829144501119E-003
   122.371875000000        -2.049853913708433E-003
   122.585625000000        -2.599839073373646E-003
   122.799375000000        -3.067373037608836E-003
   123.013125000000        -3.424675141039790E-003
   123.226875000000        -3.649192518942186E-003
   123.440625000000        -3.724934246763442E-003
   123.654375000000        -3.643466094566046E-003
   123.868125000000        -3.404507466209041E-003