 -0.847875000000000         2.582803306821422E-021
 -0.734825000000000         5.015935788749681E-019
 -0.621775000000000         4.362546536847151E-018
 -0.508725000000000         2.343026963084990E-017
 -0.395675000000000         9.828751663404724E-017
 -0.282625000000000         3.439001118837018E-016
 -0.169575000000000         1.029152162439650E-015
 -5.652500000000005E-002    2.671667871489249E-015
  5.652499999999994E-002    6.083885886225558E-015
  0.169575000000000         1.227277258048920E-014
  0.282625000000000         2.212097888904677E-014
  0.395675000000000         3.585573866414452E-014
  0.508725000000000         5.238312226701598E-014
  0.621775000000000         6.859829758689428E-014
  0.734825000000000         7.874330865753966E-014
  0.847875000000000         7.384119389633577E-014
  0.960925000000000         4.120329433981547E-014
   1.07397500000000        -3.597980399108840E-014
   1.18702500000000        -1.789715474856805E-013
   1.30007500000000        -4.137487337590820E-013
   1.41312500000000        -7.711509265474639E-013
   1.52617500000000        -1.286951435874022E-012
   1.63922500000000        -2.001840628974426E-012
   1.75227500000000        -2.961237525836875E-012
   1.86532500000000        -4.215019398899548E-012
   1.97837500000000        -5.817139474822377E-012
   2.09142500000000        -7.825101267452470E-012
   2.20447500000000        -1.029937923452429E-011
   2.31752500000000        -1.330265398388728E-011
   2.43057500000000        -1.689901132789171E-011
   2.54362500000000        -2.115301516407672E-011
   2.65667500000000        -2.612872584084838E-011
   2.76972500000000        -3.188870539619770E-011
   2.88277500000000        -3.849293366645314E-011
   2.99582500000000        -4.599780045161150E-011
   3.10887500000000        -5.445512585353712E-011
   3.22192500000000        -6.391107163649390E-011
   3.33497500000000        -7.440538432678577E-011
   3.44802500000000        -8.597064483031720E-011
   3.56107500000000        -9.863166297966521E-011
   3.67412500000000        -1.124050349298328E-010
   3.78717500000000        -1.272989277651007E-010
   3.90022500000000        -1.433130696327903E-010
   4.01327500000000        -1.604388758205745E-010
   4.12632500000000        -1.786601053877598E-010
   4.23937500000000        -1.979533589530703E-010
   4.35242500000000        -2.182889760991535E-010
   4.46547500000000        -2.396321086315413E-010
   4.57852500000000        -2.619440028484074E-010
   4.69157500000000        -2.851834757572824E-010
   4.80462500000000        -3.093082125887199E-010
   4.91767500000000        -3.342762884773723E-010
   5.03072500000000        -3.600476682855828E-010
   5.14377500000000        -3.865855809164962E-010
   5.25682500000000        -4.138577925850112E-010
   5.36987500000000        -4.418375230607406E-010
   5.48292500000000        -4.705041833497851E-010
   5.59597500000000        -4.998438890320753E-010
   5.70902500000000        -5.298494866656390E-010
   5.82207500000000        -5.605203410723045E-010
   5.93512500000000        -5.918616089017093E-010
   6.04817500000000        -6.238831368960375E-010
   6.16122500000000        -6.565980593610752E-010
   6.27427500000000        -6.900210488073317E-010
   6.38732500000000        -7.241664400268805E-010
   6.50037500000000        -7.590460045152658E-010
   6.61342500000000        -7.946665993645068E-010
   6.72647500000000        -8.310279896002925E-010
   6.83952500000000        -8.681207393463981E-010
   6.95257500000000        -9.059242768634636E-010
   7.06562500000000        -9.444053505725722E-010
   7.17867500000000        -9.835168355004885E-010
   7.29172500000000        -1.023197153664567E-009
   7.40477500000000        -1.063370119066929E-009
   7.51782500000000        -1.103945604321266E-009
   7.63087500000000        -1.144820765048315E-009
   7.74392500000000        -1.185881638307398E-009
   7.85697500000000        -1.227005793862652E-009
   7.97002500000000        -1.268065038590873E-009
   8.08307500000000        -1.308928614034802E-009
   8.19612500000000        -1.349467003822098E-009
   8.30917500000000        -1.389555408917966E-009
   8.42222500000000        -1.429077356561666E-009
   8.53527500000000        -1.467928136954317E-009
   8.64832500000000        -1.506017864498377E-009
   8.76137500000000        -1.543273864746161E-009
   8.87442500000000        -1.579642627824500E-009
   8.98747500000000        -1.615091037882758E-009
   9.10052500000000        -1.649606334765359E-009
   9.21357500000000        -1.683195566147855E-009
   9.32662500000000        -1.715884180015918E-009
   9.43967500000000        -1.747713505637636E-009
   9.55272500000000        -1.778737647962317E-009
   9.66577500000000        -1.809019992514502E-009
   9.77882500000000        -1.838629026955433E-009
   9.89187500000000        -1.867633888259916E-009
   10.0049250000000        -1.896099993234758E-009
   10.1179750000000        -1.924084851057372E-009
   10.2310250000000        -1.951634312344111E-009
   10.3440750000000        -1.978779403187530E-009
   10.4571250000000        -2.005533918823412E-009
   10.5701750000000        -2.031892986267989E-009
   10.6832250000000        -2.057832691246415E-009
   10.7962750000000        -2.083310802224036E-009
   10.9093250000000        -2.108268477549963E-009
   11.0223750000000        -2.132633118769136E-009
   11.1354250000000        -2.156322026589286E-009
   11.2484750000000        -2.179246827742042E-009
   11.3615250000000        -2.201318416365289E-009
   11.4745750000000        -2.222452161485162E-009
   11.5876250000000        -2.242573062919234E-009
   11.7006750000000        -2.261620636845607E-009
   11.8137250000000        -2.279553408257305E-009
   11.9267750000000        -2.296352427142783E-009
   12.0398250000000        -2.312023959186609E-009
   12.1528750000000        -2.326600845440220E-009
   12.2659250000000        -2.340142655780208E-009
   12.3789750000000        -2.352734678134997E-009
   12.4920250000000        -2.364485278063645E-009
   12.6050750000000        -2.375522153112491E-009
   12.7181250000000        -2.385987727376117E-009
   12.8311750000000        -2.396033539592150E-009
   12.9442250000000        -2.405813931747801E-009
   13.0572750000000        -2.415479554026847E-009
   13.1703250000000        -2.425170870821165E-009
   13.2833750000000        -2.435011942687598E-009
   13.3964250000000        -2.445104914768946E-009
   13.5094750000000        -2.455525229420334E-009
   13.6225250000000        -2.466318124909397E-009
   13.7355750000000        -2.477496568410721E-009
   13.8486250000000        -2.489040372859061E-009
   13.9616750000000        -2.500896918831469E-009
   14.0747250000000        -2.512983396976317E-009
   14.1877750000000        -2.525190536878859E-009
   14.3008250000000        -2.537387205049706E-009
   14.4138750000000        -2.549426163441115E-009
   14.5269250000000        -2.561150738512930E-009
   14.6399750000000        -2.572401399013913E-009
   14.7530250000000        -2.583022900283822E-009
   14.8660750000000        -2.592871123529056E-009
   14.9791250000000        -2.601819091957268E-009
   15.0921750000000        -2.609762361180598E-009
   15.2052250000000        -2.616623356638970E-009
   15.3182750000000        -2.622354394206027E-009
   15.4313250000000        -2.626939455063716E-009
   15.5443750000000        -2.630394571288138E-009
   15.6574250000000        -2.632766844532902E-009
   15.7704750000000        -2.634132191523260E-009
   15.8835250000000        -2.634591930872923E-009
   15.9965750000000        -2.634268603869154E-009
   16.1096250000000        -2.633301110032965E-009
   16.2226750000000        -2.631839409529513E-009
   16.3357250000000        -2.630039118623907E-009
   16.4487750000000        -2.628056366518792E-009
   16.5618250000000        -2.626042856720027E-009
   16.6748750000000        -2.624141579304518E-009
   16.7879250000000        -2.622483600337408E-009
   16.9009750000000        -2.621185437953141E-009
   17.0140250000000        -2.620347444261924E-009
   17.1270750000000        -2.620053260882516E-009
   17.2401250000000        -2.620370052108472E-009
   17.3531750000000        -2.621349602552054E-009
   17.4662250000000        -2.623030149442870E-009
   17.5792750000000        -2.625438558255900E-009
   17.6923250000000        -2.628592734028879E-009
   17.8053750000000        -2.632504347502587E-009
   17.9184250000000        -2.637181254965385E-009
   18.0314750000000        -2.642629584703863E-009
   18.1445250000000        -2.648855552212551E-009
   18.2575750000000        -2.655866556976112E-009
   18.3706250000000        -2.663671777468783E-009
   18.4836750000000        -2.672282063040073E-009
   18.5967250000000        -2.681709236217559E-009
   18.7097750000000        -2.691964859179450E-009
   18.8228250000000        -2.703058541997984E-009
   18.9358750000000        -2.714995989922872E-009
   19.0489250000000        -2.727776761305650E-009
   19.1619750000000        -2.741392370314872E-009
   19.2750250000000        -2.755824211220846E-009
   19.3880750000000        -2.771042026177718E-009
   19.5011250000000        -2.787002858160591E-009
   19.6141750000000        -2.803650319444547E-009
   19.7272250000000        -2.820914720039674E-009
   19.8402750000000        -2.838713759323399E-009
   19.9533250000000        -2.856953809294070E-009
   20.0663750000000        -2.875531664580764E-009
   20.1794250000000        -2.894336904900057E-009
   20.2924750000000        -2.913254445714541E-009
   20.4055250000000        -2.932167410474888E-009
   20.5185750000000        -2.950959947841237E-009
   20.6316250000000        -2.969519960085388E-009
   20.7446750000000        -2.987741661972811E-009
   20.8577250000000        -3.005527596410468E-009
   20.9707750000000        -3.022790365683773E-009
   21.0838250000000        -3.039453766162015E-009
   21.1968750000000        -3.055453391947039E-009
   21.3099250000000        -3.070736627042448E-009
   21.4229750000000        -3.085262162047590E-009
   21.5360250000000        -3.098999131260374E-009
   21.6490750000000        -3.111926009730478E-009
   21.7621250000000        -3.124028965729136E-009
   21.8751750000000        -3.135300378207915E-009
   21.9882250000000        -3.145737574261218E-009
   22.1012750000000        -3.155341376638886E-009
   22.2143250000000        -3.164114990981374E-009
   22.3273750000000        -3.172063310879768E-009
   22.4404250000000        -3.179192651044014E-009
   22.5534750000000        -3.185510741733519E-009
   22.6665250000000        -3.191027129302584E-009
   22.7795750000000        -3.195753964192195E-009
   22.8926250000000        -3.199707052272737E-009
   23.0056750000000        -3.202906937163520E-009
   23.1187250000000        -3.205379988921036E-009
   23.2317750000000        -3.207159659341539E-009
   23.3448250000000        -3.208287334644389E-009
   23.4578750000000        -3.208812700261620E-009
   23.5709250000000        -3.208794026267424E-009
   23.6839750000000        -3.208297763238843E-009
   23.7970250000000        -3.207397725269457E-009
   23.9100750000000        -3.206173714706963E-009
   24.0231250000000        -3.204709540406004E-009
   24.1361750000000        -3.203090807555347E-009
   24.2492250000000        -3.201402447631109E-009
   24.3622750000000        -3.199725794124763E-009
   24.4753250000000        -3.198135698856348E-009
   24.5883750000000        -3.196697917019673E-009
   24.7014250000000        -3.195466528803081E-009
   24.8144750000000        -3.194481762648781E-009
   24.9275250000000        -3.193768286029192E-009
   25.0405750000000        -3.193334134176053E-009
   25.1536250000000        -3.193170191875759E-009
   25.2666750000000        -3.193250329550218E-009
   25.3797250000000        -3.193532170253759E-009
   25.4927750000000        -3.193958309227253E-009
   25.6058250000000        -3.194458272071847E-009
   25.7188750000000        -3.194950720635131E-009
   25.8319250000000        -3.195345755814033E-009
   25.9449750000000        -3.195547476387293E-009
   26.0580250000000        -3.195456397465094E-009
   26.1710750000000        -3.194971723840310E-009
   26.2841250000000        -3.193993454199036E-009
   26.3971750000000        -3.192423795534351E-009
   26.5102250000000        -3.190168216604775E-009
   26.6232750000000        -3.187136239318643E-009
   26.7363250000000        -3.183241424694551E-009
   26.8493750000000        -3.178401079958701E-009
   26.9624250000000        -3.172535724006271E-009
   27.0754750000000        -3.165568197257547E-009
   27.1885250000000        -3.157422476928642E-009
   27.3015750000000        -3.148023106936735E-009
   27.4146250000000        -3.137294435413144E-009
   27.5276750000000        -3.125160050243821E-009
   27.6407250000000        -3.111543227137911E-009
   27.7537750000000        -3.096367485233791E-009
   27.8668250000000        -3.079558048980493E-009
   27.9798750000000        -3.061043850081274E-009
   28.0929250000000        -3.040760100012225E-009
   28.2059750000000        -3.018651608873713E-009
   28.3190250000000        -2.994676412577581E-009
   28.4320750000000        -2.968809526103500E-009
   28.5451250000000        -2.941046948163377E-009
   28.6581750000000        -2.911409483079416E-009
   28.7712250000000        -2.879945961837505E-009
   28.8842750000000        -2.846735941450168E-009
   28.9973250000000        -2.811891543698903E-009
   29.1103750000000        -2.775558021851878E-009
   29.2234250000000        -2.737913109307843E-009
   29.3364750000000        -2.699165094139410E-009
   29.4495250000000        -2.659549108509795E-009
   29.5625750000000        -2.619322023274482E-009
   29.6756250000000        -2.578756105695663E-009
   29.7886750000000        -2.538131220496060E-009
   29.9017250000000        -2.497725867358004E-009
   30.0147750000000        -2.457807481862224E-009
   30.1278250000000        -2.418622070080118E-009
   30.2408750000000        -2.380383961332431E-009
   30.3539250000000        -2.343265673168430E-009
   30.4669750000000        -2.307388349003166E-009
   30.5800250000000        -2.272813494861598E-009
   30.6930750000000        -2.239536108487012E-009
   30.8061250000000        -2.207479753158303E-009
   30.9191750000000        -2.176494003475357E-009
   31.0322250000000        -2.146354408662633E-009
   31.1452750000000        -2.116765123633123E-009
   31.2583250000000        -2.087364506535024E-009
   31.3713750000000        -2.057733683375853E-009
   31.4844250000000        -2.027407983730108E-009
   31.5974750000000        -1.995890913699370E-009
   31.7105250000000        -1.962670747505224E-009
   31.8235750000000        -1.927238911799995E-009
   31.9366250000000        -1.889109932010467E-009
   32.0496750000000        -1.847842319565074E-009
   32.1627250000000        -1.803059469387689E-009
   32.2757750000000        -1.754470080305683E-009
   32.3888250000000        -1.701887118873523E-009
   32.5018750000000        -1.645244616157879E-009
   32.6149250000000        -1.584611309965596E-009
   32.7279750000000        -1.520200314256636E-009
   32.8410250000000        -1.452374311137077E-009
   32.9540750000000        -1.381645180728070E-009
   33.0671250000000        -1.308667904239031E-009
   33.1801750000000        -1.234228390099337E-009
   33.2932250000000        -1.159224495707794E-009
   33.4062750000000        -1.084641043960459E-009
   33.5193250000000        -1.011518552051726E-009
   33.6323750000000        -9.409166423351669E-010
   33.7454250000000        -8.738727594280719E-010
   33.8584750000000        -8.113570997360784E-010
   33.9715250000000        -7.542257133727246E-010
   34.0845750000000        -7.031729141470999E-010
   34.1976250000000        -6.586850058099537E-010
   34.3106750000000        -6.209972486456822E-010
   34.4237250000000        -5.900564371533148E-010
   34.5367750000000        -5.654908538643262E-010
   34.6498250000000        -5.465897637228815E-010
   34.7628750000000        -5.322945986447562E-010
   34.8759250000000        -5.212032153020046E-010
   34.9889750000000        -5.115887165201380E-010
   35.1020250000000        -5.014336412552326E-010
   35.2150750000000        -4.884800198188132E-010
   35.3281250000000        -4.702948793881298E-010
   35.4411750000000        -4.443504768509574E-010
   35.5542250000000        -4.081176282725036E-010
   35.6672750000000        -3.591695822136469E-010
   35.7803250000000        -2.952936115761615E-010
   35.8933750000000        -2.146065848176161E-010
   36.0064250000000        -1.156702886843934E-010
   36.1194750000000         2.398294074333885E-012
   36.2325250000000         1.398268659957666E-010
   36.3455750000000         2.961029757537575E-010
   36.4586250000000         4.699097175582109E-010
   36.5716750000000         6.590866657812303E-010
   36.6847250000000         8.606206752443761E-010
   36.7977750000000         1.070669965390005E-009
   36.9108250000000         1.284624224761041E-009
   37.0238750000000         1.497202349757840E-009
   37.1369250000000         1.702587582676440E-009
   37.2499750000000         1.894599047077448E-009
   37.3630250000000         2.066896237498874E-009
   37.4760750000000         2.213211997254994E-009
   37.5891250000000         2.327607619291930E-009
   37.7021750000000         2.404742082933167E-009
   37.8152250000000         2.440146261510926E-009
   37.9282750000000         2.430491610058847E-009
   38.0413250000000         2.373842016170873E-009
   38.1543750000000         2.269877350008712E-009
   38.2674250000000         2.120076881563501E-009
   38.3804750000000         1.927851102069191E-009
   38.4935250000000         1.698611898107093E-009
   38.6065750000000         1.439772020269337E-009
   38.7196250000000         1.160667119385027E-009
   38.8326750000000         8.723956120029050E-010
   38.9457250000000         5.875747749040278E-010
   39.0587750000000         3.200144141237253E-010
   39.1718250000000         8.431297810919429E-011
   39.2848750000000        -1.046154448226350E-010
   39.3979250000000        -2.320717884790596E-010
   39.5109750000000        -2.841451357752780E-010
   39.6240250000000        -2.483102362377400E-010
   39.7370750000000        -1.140285116814026E-010
   39.8501250000000         1.266697049647255E-010
   39.9631750000000         4.786457937484073E-010
   40.0762250000000         9.431808243279587E-010
   40.1892750000000         1.517594525565970E-009
   40.3023250000000         2.194977731668960E-009
   40.4153750000000         2.964058467110855E-009
   40.5284250000000         3.809218534620107E-009
   40.6414750000000         4.710672295306933E-009
   40.7545250000000         5.644815105842462E-009
   40.8675750000000         6.584743084827540E-009
   40.9806250000000         7.500938727343091E-009
   41.0936750000000         8.362110961406715E-009
   41.2067250000000         9.136171220991035E-009
   41.3197750000000         9.791320539569235E-009
   41.4328250000000         1.029721672403651E-008
   41.5458750000000         1.062618509344244E-008
   41.6589250000000         1.075443193759439E-008
   41.7719750000000         1.066321657099843E-008
   41.8850250000000         1.033993615437025E-008
   41.9980750000000         9.779077082093147E-009
   42.1111250000000         8.982988355357543E-009
   42.2241750000000         7.962435557959657E-009
   42.3372250000000         6.736898992650753E-009
   42.4502750000000         5.334586221998652E-009
   42.5633250000000         3.792137879581731E-009
   42.6763750000000         2.154014651990807E-009
   42.7894250000000         4.715642885490039E-010
   42.9024750000000        -1.198220787763692E-009
   43.0155250000000        -2.794233377711288E-009
   43.1285750000000        -4.253034908773120E-009
   43.2416250000000        -5.510847173705328E-009
   43.3546750000000        -6.505696939172980E-009
   43.4677250000000        -7.179648916357154E-009
   43.5807750000000        -7.481054998190582E-009
   43.6938250000000        -7.366743113313603E-009
   43.8068750000000        -6.804066261521508E-009
   43.9199250000000        -5.772731916769087E-009
   44.0329750000000        -4.266335338176086E-009
   44.1460250000000        -2.293525856689649E-009
   44.2590750000000         1.212561151479688E-010
   44.3721250000000         2.937522592748318E-009
   44.4851750000000         6.098999330990277E-009
   44.5982250000000         9.534426446826312E-009
   44.7112750000000         1.315890311326587E-008
   44.8243250000000         1.687576201749189E-008
   44.9373750000000         2.057894109165133E-008
   45.0504250000000         2.415580100330388E-008
   45.1634750000000         2.749031949414023E-008
   45.2765250000000         3.046657718363943E-008
   45.3895750000000         3.297243570596886E-008
   45.5026250000000         3.490329775757345E-008
   45.6156750000000         3.616583031493443E-008
   45.7287250000000         3.668152851974778E-008
   45.8417750000000         3.638999717798525E-008
   45.9548250000000         3.525183104844257E-008
   46.0678750000000         3.325098228810276E-008
   46.1809250000000         3.039651657391923E-008
   46.2939750000000         2.672367509834430E-008
   46.4070250000000         2.229417859955580E-008
   46.5200750000000         1.719573225019319E-008
   46.6331250000000         1.154071413511839E-008
   46.7461750000000         5.464056052235977E-009
   46.8592250000000        -8.796483170423693E-010
   46.9722750000000        -7.319747480894198E-009
   47.0853250000000        -1.367376244098325E-008
   47.1983750000000        -1.975213549907690E-008
   47.3114250000000        -2.536337011654075E-008
   47.4244750000000        -3.031941798778114E-008
   47.5375250000000        -3.444115876320897E-008
   47.6505750000000        -3.756381072009802E-008
   47.7636250000000        -3.954210909647418E-008
   47.8766750000000        -4.025509305521998E-008
   47.9897250000000        -3.961035128102433E-008
   48.1027750000000        -3.754759019129450E-008
   48.2158250000000        -3.404140782009709E-008
   48.3288750000000        -2.910317952505043E-008
   48.4419250000000        -2.278198772699459E-008
   48.5549750000000        -1.516455647035594E-008
   48.6680250000000        -6.374182093197013E-009
   48.7810750000000         3.431318191668447E-009
   48.8941250000000         1.406258887270803E-008
   49.0071750000000         2.530257006446203E-008
   49.1202250000000         3.691107834626128E-008
   49.2332750000000         4.863000855594607E-008
   49.3463250000000         6.018901331003814E-008
   49.4593750000000         7.131150609081597E-008
   49.5724250000000         8.172082690864784E-008
   49.6854750000000         9.114640953309203E-008
   49.7985250000000         9.932979481159891E-008
   49.9115750000000         1.060303456985156E-007
   50.0246250000000         1.110305353145016E-007
   50.1376750000000         1.141406999461184E-007
   50.2507250000000         1.152031726039340E-007
   50.3637750000000         1.140957385919471E-007
   50.4768250000000         1.107343815120032E-007
   50.5898750000000         1.050753149970795E-007
   50.7029250000000         9.711632054490953E-008
   50.8159750000000         8.689743426386683E-008
   50.9290250000000         7.450104362429475E-008
   51.0420750000000         6.005146854114353E-008
   51.1551250000000         4.371410848265967E-008
   51.2681750000000         2.569423776677300E-008
   51.3812250000000         6.235525913126780E-009
   51.4942750000000        -1.438165293047310E-008
   51.6073250000000        -3.584207698956989E-008
   51.7203750000000        -5.779767908070021E-008
   51.8334250000000        -7.986970206033869E-008
   51.9464750000000        -1.016510478617684E-007
   52.0595250000000        -1.227088919855906E-007
   52.1725750000000        -1.425876676306229E-007
   52.2856250000000        -1.608125537919185E-007
   52.3986750000000        -1.768936234609469E-007
   52.5117250000000        -1.903308256017451E-007
   52.6247750000000        -2.006199810973245E-007
   52.7378250000000        -2.072599673441333E-007
   52.8508750000000        -2.097612494772807E-007
   52.9639250000000        -2.076558833644165E-007
   53.0769750000000        -2.005090692739559E-007
   53.1900250000000        -1.879322735618230E-007
   53.3030750000000        -1.695978604359964E-007
   53.4161250000000        -1.452550874947016E-007
   53.5291750000000        -1.147472204990113E-007
   53.6422250000000        -7.802941698859027E-008
   53.7552750000000        -3.518691824222605E-008
   53.8683250000000         1.354702012278662E-008
   53.9813750000000         6.777413268698570E-008
   54.0944250000000         1.269158511036414E-007
   54.2074750000000         1.902005586863295E-007
   54.3205250000000         2.566542935224461E-007
   54.4335750000000         3.250958300782020E-007
   54.5466250000000         3.941370666806836E-007
   54.6596750000000         4.621896068401139E-007
   54.7727250000000         5.274783433888320E-007
   54.8857750000000         5.880627322469270E-007
   54.9988250000000         6.418662784057513E-007
   55.1118750000000         6.867145481207773E-007
   55.2249250000000         7.203817720012816E-007
   55.3379750000000         7.406458170307926E-007
   55.4510250000000         7.453509873290833E-007
   55.5640750000000         7.324777709578696E-007
   55.6771250000000         7.002182917426518E-007
   55.7901750000000         6.470558639990559E-007
   55.9032250000000         5.718466935215741E-007
   56.0162750000000         4.739014354656471E-007
   56.1293250000000         3.530640233551018E-007
   56.2423750000000         2.097849360030612E-007
   56.3554250000000         4.518588604998038E-008
   56.4684750000000        -1.388871902345874E-007
   56.5815250000000        -3.398259759553636E-007
   56.6945750000000        -5.542394957085630E-007
   56.8076250000000        -7.779545647714821E-007
   56.9206750000000        -1.006039499140803E-006
   57.0337250000000        -1.232853186668389E-006
   57.1467750000000        -1.452121069191804E-006
   57.2598250000000        -1.657038922619133E-006
   57.3728750000000        -1.840404555862724E-006
   57.4859250000000        -1.994776694380287E-006
   57.5989750000000        -2.112659387931128E-006
   57.7120250000000        -2.186709307585848E-006
   57.8250750000000        -2.209962299514844E-006
   57.9381250000000        -2.176074572279962E-006
   58.0511750000000        -2.079572943175314E-006
   58.1642250000000        -1.916107690586992E-006
   58.2772750000000        -1.682700788875677E-006
   58.3903250000000        -1.377981675525966E-006
   58.5033750000000        -1.002402249521966E-006
   58.6164250000000        -5.584225585473108E-007
   58.7294750000000        -5.065862720559239E-008
   58.8425250000000         5.140158687190131E-007
   58.9555750000000         1.126421845564148E-006
   59.0686250000000         1.775087920266877E-006
   59.1816750000000         2.446330226522313E-006
   59.2947250000000         3.124403392734461E-006
   59.4077750000000         3.791725483708748E-006
   59.5208250000000         4.429177812970401E-006
   59.6338750000000         5.016478432824436E-006
   59.7469250000000         5.532625849070683E-006
   59.8599750000000         5.956407137583777E-006
   59.9730250000000         6.266962224165538E-006
   60.0860750000000         6.444393694777748E-006
   60.1991250000000         6.470409201527556E-006
   60.3121750000000         6.328981398241022E-006
   60.4252250000000         6.007008456620277E-006
   60.5382750000000         5.494956653445228E-006
   60.6513250000000         4.787465357571705E-006
   60.7643750000000         3.883894048937831E-006
   60.8774250000000         2.788790828200197E-006
   60.9904750000000         1.512262276637505E-006
   61.1035250000000         7.022553530486846E-008
   61.2165750000000        -1.515474889972699E-006
   61.3296250000000        -3.217100817948823E-006
   61.4426750000000        -5.001216905242923E-006
   61.5557250000000        -6.829058835737487E-006
   61.6687750000000        -8.657078027290475E-006
   61.7818250000000        -1.043766322644850E-005
   61.8948750000000        -1.212003451938030E-005
   62.0079250000000        -1.365130018471381E-005
   62.1209750000000        -1.497766157353311E-005
   62.2340250000000        -1.604574596032315E-005
   62.3470750000000        -1.680404221445583E-005
   62.4601250000000        -1.720440934719668E-005
   62.5731750000000        -1.720362365148048E-005
   62.6862250000000        -1.676492642300886E-005
   62.7992750000000        -1.585953128250081E-005
   62.9123250000000        -1.446804804416546E-005
   63.0253750000000        -1.258177901651723E-005
   63.1384250000000        -1.020384368063732E-005
   63.2514750000000        -7.350088942494421E-006
   63.3645250000000        -4.049744649193732E-006
   63.4775750000000        -3.457878111036589E-007
   63.5906250000000         3.705016034801789E-006
   63.7036750000000         8.032419703377113E-006
   63.8167250000000         1.255336758108793E-005
   63.9297750000000         1.717304502956093E-005
   64.0428250000000         2.178630474083916E-005
   64.1558750000000         2.627946111351646E-005
   64.2689250000000         3.053243361683336E-005
   64.3819750000000         3.442120984837659E-005
   64.4950250000000         3.782058883349816E-005
   64.6080750000000         4.060715533980703E-005
   64.7211250000000         4.266242686670250E-005
   64.8341750000000         4.387610680101539E-005
   64.9472250000000         4.414937027469312E-005
   65.0602750000000         4.339810377142363E-005
   65.1733250000000         4.155601573402889E-005
   65.2863750000000         3.857753351578661E-005
   65.3994250000000         3.444040215178734E-005
   65.5124750000000         2.914790270566923E-005