 -0.847875000000000         9.271524409708244E-020
 -0.734825000000000         2.570729996436882E-017
 -0.621775000000000         1.821718157762624E-016
 -0.508725000000000         8.834878935752012E-016
 -0.395675000000000         3.454211702428834E-015
 -0.282625000000000         1.135771194628182E-014
 -0.169575000000000         3.203590356304408E-014
 -5.652500000000005E-002    7.873909366580567E-014
  5.652499999999994E-002    1.712937807462079E-013
  0.169575000000000         3.352959746790939E-013
  0.282625000000000         6.004194199371367E-013
  0.395675000000000         9.991800392636589E-013
  0.508725000000000         1.567159754594005E-012
  0.621775000000000         2.343645321768715E-012
  0.734825000000000         3.372181178447356E-012
  0.847875000000000         4.700088091347003E-012
  0.960925000000000         6.377197926776342E-012
   1.07397500000000         8.453728601765080E-012
   1.18702500000000         1.097834233632803E-011
   1.30007500000000         1.399546864988446E-011
   1.41312500000000         1.754253150356081E-011
   1.52617500000000         2.164826000713477E-011
   1.63922500000000         2.632895334129012E-011
   1.75227500000000         3.158798687758953E-011
   1.86532500000000         3.741266201449125E-011
   1.97837500000000         4.377313354834426E-011
   2.09142500000000         5.062164449117760E-011
   2.20447500000000         5.789211321264714E-011
   2.31752500000000         6.550000214200598E-011
   2.43057500000000         7.334283380568347E-011
   2.54362500000000         8.130433833202186E-011
   2.65667500000000         8.925342336096086E-011
   2.76972500000000         9.705007831946132E-011
   2.88277500000000         1.045454972643363E-010
   2.99582500000000         1.115901480022343E-010
   3.10887500000000         1.180356184185040E-010
   3.22192500000000         1.237397933576742E-010
   3.33497500000000         1.285714544233303E-010
   3.44802500000000         1.324149408050218E-010
   3.56107500000000         1.351740749998384E-010
   3.67412500000000         1.367753354620199E-010
   3.78717500000000         1.371692005503864E-010
   3.90022500000000         1.363360097869817E-010
   4.01327500000000         1.342813450976047E-010
   4.12632500000000         1.310390894356930E-010
   4.23937500000000         1.266708791179009E-010
   4.35242500000000         1.212601701699938E-010
   4.46547500000000         1.149104989622613E-010
   4.57852500000000         1.077422627319335E-010
   4.69157500000000         9.988645301425318E-011
   4.80462500000000         9.147919597002032E-011
   4.91767500000000         8.265707857759107E-011
   5.03072500000000         7.355407116607666E-011
   5.14377500000000         6.429197262949822E-011
   5.25682500000000         5.498042924706279E-011
   5.36987500000000         4.571344343825217E-011
   5.48292500000000         3.656487160533287E-011
   5.59597500000000         2.759198973249660E-011
   5.70902500000000         1.883334936425915E-011
   5.82207500000000         1.031353955803918E-011
   5.93512500000000         2.044324016389973E-012
   6.04817500000000        -5.969406377519493E-012
   6.16122500000000        -1.372668995853496E-011
   6.27427500000000        -2.121925332049533E-011
   6.38732500000000        -2.843038108217019E-011
   6.50037500000000        -3.532800251379118E-011
   6.61342500000000        -4.185709273879446E-011
   6.72647500000000        -4.794380632189188E-011
   6.83952500000000        -5.348212110429194E-011
   6.95257500000000        -5.834016087678334E-011
   7.06562500000000        -6.235789881028801E-011
   7.17867500000000        -6.535388934603545E-011
   7.29172500000000        -6.712660824336004E-011
   7.40477500000000        -6.746720063468247E-011
   7.51782500000000        -6.615598368958523E-011
   7.63087500000000        -6.298905096684723E-011
   7.74392500000000        -5.777379589259606E-011
   7.85697500000000        -5.034869630644871E-011
   7.97002500000000        -4.059221714334209E-011
   8.08307500000000        -2.842716409277791E-011
   8.19612500000000        -1.383944874367621E-011
   8.30917500000000         3.127416813753541E-012
   8.42222500000000         2.236200765866292E-011
   8.53527500000000         4.368414159538954E-011
   8.64832500000000         6.684926846490603E-011
   8.76137500000000         9.155087337440644E-011
   8.87442500000000         1.174319512702401E-010
   8.98747500000000         1.440928006307725E-010
   9.10052500000000         1.711047464523635E-010
   9.21357500000000         1.980255100024532E-010
   9.32662500000000         2.244138285029375E-010
   9.43967500000000         2.498475279781469E-010
   9.55272500000000         2.739369671073117E-010
   9.66577500000000         2.963398284514309E-010
   9.77882500000000         3.167750880004794E-010
   9.89187500000000         3.350326072787214E-010
   10.0049250000000         3.509779008345379E-010
   10.1179750000000         3.645598226271296E-010
   10.2310250000000         3.758053346307243E-010
   10.3440750000000         3.848205056717065E-010
   10.4571250000000         3.917787766350929E-010
   10.5701750000000         3.969152960664985E-010
   10.6832250000000         4.005094762051834E-010
   10.7962750000000         4.028711345237236E-010
   10.9093250000000         4.043307539676205E-010
   11.0223750000000         4.052104072995510E-010
   11.1354250000000         4.058209703533339E-010
   11.2484750000000         4.064438808108595E-010
   11.3615250000000         4.073131921071052E-010
   11.4745750000000         4.086169585959717E-010
   11.5876250000000         4.104823178804783E-010
   11.7006750000000         4.129801403476821E-010
   11.8137250000000         4.161199457092360E-010
   11.9267750000000         4.198654894090488E-010
   12.0398250000000         4.241299718855723E-010
   12.1528750000000         4.287979955597369E-010
   12.2659250000000         4.337355098230711E-010
   12.3789750000000         4.388034277811425E-010
   12.4920250000000         4.438739239482432E-010
   12.6050750000000         4.488448013602490E-010
   12.7181250000000         4.536553240164166E-010
   12.8311750000000         4.582906330166713E-010
   12.9442250000000         4.627967723150018E-010
   13.0572750000000         4.672826383470464E-010
   13.1703250000000         4.719169371189178E-010
   13.2833750000000         4.769313555321288E-010
   13.3964250000000         4.826093714903013E-010
   13.5094750000000         4.892751620092290E-010
   13.6225250000000         4.972786178246784E-010
   13.7355750000000         5.069817351151052E-010
   13.8486250000000         5.187401966662155E-010
   13.9616750000000         5.328772182843488E-010
   14.0747250000000         5.496767180896925E-010
   14.1877750000000         5.693562413799246E-010
   14.3008250000000         5.920561102995888E-010
   14.4138750000000         6.178294899639759E-010
   14.5269250000000         6.466267717950649E-010
   14.6399750000000         6.783024492202171E-010
   14.7530250000000         7.126051070496373E-010
   14.8660750000000         7.491943522592007E-010
   14.9791250000000         7.876376100077316E-010
   15.0921750000000         8.274368616987381E-010
   15.2052250000000         8.680358303655707E-010
   15.3182750000000         9.088444441548692E-010
   15.4313250000000         9.492602714710206E-010
   15.5443750000000         9.886913780726712E-010
   15.6574250000000         1.026573853330599E-009
   15.7704750000000         1.062399585276322E-009
   15.8835250000000         1.095724515319854E-009
   15.9965750000000         1.126194536285244E-009
   16.1096250000000         1.153544711594612E-009
   16.2226750000000         1.177615599359273E-009
   16.3357250000000         1.198351976384982E-009
   16.4487750000000         1.215796691150020E-009
   16.5618250000000         1.230089522885737E-009
   16.6748750000000         1.241453876743519E-009
   16.7879250000000         1.250183544338028E-009
   16.9009750000000         1.256621076278622E-009
   17.0140250000000         1.261147457092165E-009
   17.1270750000000         1.264159490930107E-009
   17.2401250000000         1.266048058997078E-009
   17.3531750000000         1.267184426394030E-009
   17.4662250000000         1.267901430050332E-009
   17.5792750000000         1.268483104398591E-009
   17.6923250000000         1.269154754498105E-009
   17.8053750000000         1.270069875447177E-009
   17.9184250000000         1.271320965550178E-009
   18.0314750000000         1.272927220157361E-009
   18.1445250000000         1.274851447427018E-009
   18.2575750000000         1.276997467117158E-009
   18.3706250000000         1.279231043239596E-009
   18.4836750000000         1.281385348681580E-009
   18.5967250000000         1.283281054941960E-009
   18.7097750000000         1.284739740128873E-009
   18.8228250000000         1.285594039702133E-009
   18.9358750000000         1.285711185188135E-009
   19.0489250000000         1.284995838012305E-009
   19.1619750000000         1.283400587571094E-009
   19.2750250000000         1.280943879548601E-009
   19.3880750000000         1.277696422316425E-009
   19.5011250000000         1.273800233576472E-009
   19.6141750000000         1.269450634792252E-009
   19.7272250000000         1.264901141731393E-009
   19.8402750000000         1.260452441318644E-009
   19.9533250000000         1.256439708755514E-009
   20.0663750000000         1.253226237877106E-009
   20.1794250000000         1.251182846526783E-009
   20.2924750000000         1.250681824452565E-009
   20.4055250000000         1.252077735224027E-009
   20.5185750000000         1.255697273267379E-009
   20.6316250000000         1.261827761147078E-009
   20.7446750000000         1.270703371718902E-009
   20.8577250000000         1.282503207761704E-009
   20.9707750000000         1.297339941517017E-009
   21.0838250000000         1.315261944221255E-009
   21.1968750000000         1.336245712007954E-009
   21.3099250000000         1.360202948182534E-009
   21.4229750000000         1.386982092928269E-009
   21.5360250000000         1.416372984641868E-009
   21.6490750000000         1.448115496680799E-009
   21.7621250000000         1.481907464248060E-009
   21.8751750000000         1.517413624036473E-009
   21.9882250000000         1.554275112090770E-009
   22.1012750000000         1.592120926324364E-009
   22.2143250000000         1.630574593286861E-009
   22.3273750000000         1.669265605682675E-009
   22.4404250000000         1.707836293409351E-009
   22.5534750000000         1.745949549309937E-009
   22.6665250000000         1.783293383879366E-009
   22.7795750000000         1.819589576906216E-009
   22.8926250000000         1.854591436813544E-009
   23.0056750000000         1.888090522155627E-009
   23.1187250000000         1.919917564871897E-009
   23.2317750000000         1.949940558162043E-009
   23.3448250000000         1.978065313972826E-009
   23.4578750000000         2.004234436493957E-009
   23.5709250000000         2.028424052012090E-009
   23.6839750000000         2.050644885241802E-009
   23.7970250000000         2.070933901856897E-009
   23.9100750000000         2.089355556017105E-009
   24.0231250000000         2.105999380282212E-009
   24.1361750000000         2.120973478398063E-009
   24.2492250000000         2.134405076721555E-009
   24.3622750000000         2.146434269066294E-009
   24.4753250000000         2.157217403830507E-009
   24.5883750000000         2.166917093109259E-009
   24.7014250000000         2.175708219755050E-009
   24.8144750000000         2.183768256663493E-009
   24.9275250000000         2.191281216697873E-009
   25.0405750000000         2.198435740356854E-009
   25.1536250000000         2.205421639091891E-009
   25.2666750000000         2.212430243927277E-009
   25.3797250000000         2.219654119960142E-009
   25.4927750000000         2.227283837005336E-009
   25.6058250000000         2.235512816287357E-009
   25.7188750000000         2.244531673168494E-009
   25.8319250000000         2.254529669757916E-009
   25.9449750000000         2.265695125544034E-009
   26.0580250000000         2.278213751070232E-009
   26.1710750000000         2.292269453877884E-009
   26.2841250000000         2.308036015339436E-009
   26.3971750000000         2.325688391380956E-009
   26.5102250000000         2.345392442726363E-009
   26.6232750000000         2.367304244737438E-009
   26.7363250000000         2.391568484320831E-009
   26.8493750000000         2.418317185471625E-009
   26.9624250000000         2.447663708189829E-009
   27.0754750000000         2.479701487322228E-009
   27.1885250000000         2.514504826995186E-009
   27.3015750000000         2.552114682963461E-009
   27.4146250000000         2.592548452813392E-009
   27.5276750000000         2.635785045660269E-009
   27.6407250000000         2.681771721627098E-009
   27.7537750000000         2.730415913571533E-009
   27.8668250000000         2.781585136110308E-009
   27.9798750000000         2.835108753990852E-009
   28.0929250000000         2.890772013296734E-009
   28.2059750000000         2.948325327764962E-009
   28.3190250000000         3.007477240036233E-009
   28.4320750000000         3.067904383138377E-009
   28.5451250000000         3.129251233997895E-009
   28.6581750000000         3.191134420451378E-009
   28.7712250000000         3.253150251661763E-009
   28.8842750000000         3.314878237278961E-009
   28.9973250000000         3.375887670356584E-009
   29.1103750000000         3.435745820626712E-009
   29.2234250000000         3.494023208867863E-009
   29.3364750000000         3.550300434532763E-009
   29.4495250000000         3.604172433109229E-009
   29.5625750000000         3.655261609867372E-009
   29.6756250000000         3.703216543014106E-009
   29.7886750000000         3.747722525977793E-009
   29.9017250000000         3.788506368635881E-009
   30.0147750000000         3.825342361134286E-009
   30.1278250000000         3.858053569887173E-009
   30.2408750000000         3.886525184235252E-009
   30.3539250000000         3.910698403531490E-009
   30.4669750000000         3.930584258696106E-009
   30.5800250000000         3.946261648114778E-009
   30.6930750000000         3.957883394636929E-009
   30.8061250000000         3.965678271588074E-009
   30.9191750000000         3.969952236911881E-009
   31.0322250000000         3.971090620955095E-009
   31.1452750000000         3.969554233486886E-009
   31.2583250000000         3.965881639398736E-009
   31.3713750000000         3.960676815237828E-009
   31.4844250000000         3.954608587620138E-009
   31.5974750000000         3.948397813686010E-009
   31.7105250000000         3.942802801299029E-009
   31.8235750000000         3.938603796987019E-009
   31.9366250000000         3.936584788349024E-009
   32.0496750000000         3.937512135570533E-009
   32.1627250000000         3.942110071703632E-009
   32.2757750000000         3.951032733226174E-009
   32.3888250000000         3.964841441649954E-009
   32.5018750000000         3.983977291147562E-009
   32.6149250000000         4.008736146947448E-009
   32.7279750000000         4.039244287016651E-009
   32.8410250000000         4.075446205312074E-009
   32.9540750000000         4.117085461568101E-009
   33.0671250000000         4.163699713810348E-009
   33.1801750000000         4.214623995820770E-009
   33.2932250000000         4.268996069905606E-009
   33.4062750000000         4.325778161038210E-009
   33.5193250000000         4.383779309926079E-009
   33.6323750000000         4.441696260337367E-009
   33.7454250000000         4.498153423153530E-009
   33.8584750000000         4.551755489724408E-009
   33.9715250000000         4.601141273630107E-009
   34.0845750000000         4.645047544194544E-009
   34.1976250000000         4.682365037857634E-009
   34.3106750000000         4.712198958351980E-009
   34.4237250000000         4.733921693389912E-009
   34.5367750000000         4.747221553016267E-009
   34.6498250000000         4.752139183759386E-009
   34.7628750000000         4.749088119675262E-009
   34.8759250000000         4.738867958951295E-009
   34.9889750000000         4.722655259137038E-009
   35.1020250000000         4.701975832095752E-009
   35.2150750000000         4.678665988571193E-009
   35.3281250000000         4.654813424820287E-009
   35.4411750000000         4.632677821614512E-009
   35.5542250000000         4.614606398010693E-009
   35.6672750000000         4.602937060452747E-009
   35.7803250000000         4.599890949219030E-009
   35.8933750000000         4.607470292527123E-009
   36.0064250000000         4.627357173859830E-009
   36.1194750000000         4.660814523238530E-009
   36.2325250000000         4.708616365953116E-009
   36.3455750000000         4.770977229125840E-009
   36.4586250000000         4.847517384854553E-009
   36.5716750000000         4.937245938857450E-009
   36.6847250000000         5.038580004733146E-009
   36.7977750000000         5.149380978233480E-009
   36.9108250000000         5.267028125552602E-009
   37.0238750000000         5.388517031896266E-009
   37.1369250000000         5.510575016866229E-009
   37.2499750000000         5.629805214401781E-009
   37.3630250000000         5.742826530325341E-009
   37.4760750000000         5.846442230918582E-009
   37.5891250000000         5.937781160670185E-009
   37.7021750000000         6.014445784564318E-009
   37.8152250000000         6.074631871919632E-009
   37.9282750000000         6.117229789064546E-009
   38.0413250000000         6.141888230486421E-009
   38.1543750000000         6.149038737774822E-009
   38.2674250000000         6.139884381641453E-009
   38.3804750000000         6.116341046303638E-009
   38.4935250000000         6.080942494170913E-009
   38.6065750000000         6.036699555043627E-009
   38.7196250000000         5.986936432019756E-009
   38.8326750000000         5.935092533376833E-009
   38.9457250000000         5.884522759474717E-009
   39.0587750000000         5.838279551615965E-009
   39.1718250000000         5.798923015414563E-009
   39.2848750000000         5.768340482490139E-009
   39.3979250000000         5.747610463798834E-009
   39.5109750000000         5.736917594480132E-009
   39.6240250000000         5.735510739614662E-009
   39.7370750000000         5.741757491541504E-009
   39.8501250000000         5.753231136939397E-009
   39.9631750000000         5.766902353786436E-009
   40.0762250000000         5.779373204636465E-009
   40.1892750000000         5.787182460698404E-009
   40.3023250000000         5.787151200835151E-009
   40.4153750000000         5.776749862437580E-009
   40.5284250000000         5.754483502445655E-009
   40.6414750000000         5.720249802668036E-009
   40.7545250000000         5.675651659693649E-009
   40.8675750000000         5.624247756943448E-009
   40.9806250000000         5.571699312673308E-009
   41.0936750000000         5.525797799193224E-009
   41.2067250000000         5.496359492623837E-009
   41.3197750000000         5.494963797613304E-009
   41.4328250000000         5.534523244761361E-009
   41.5458750000000         5.628710839273281E-009
   41.6589250000000         5.791228284286791E-009
   41.7719750000000         6.034948815045726E-009
   41.8850250000000         6.370964619119195E-009
   41.9980750000000         6.807568045320517E-009
   42.1111250000000         7.349230850918908E-009
   42.2241750000000         7.995618813895744E-009
   42.3372250000000         8.740715669845724E-009
   42.4502750000000         9.572107975708224E-009
   42.5633250000000         1.047050206333079E-008
   42.6763750000000         1.140951270064246E-008
   42.7894250000000         1.235581118966769E-008
   42.9024750000000         1.326962867297532E-008
   43.0155250000000         1.410567782864006E-008
   43.1285750000000         1.481448263492044E-008
   43.2416250000000         1.534411531401958E-008
   43.3546750000000         1.564231131730316E-008
   43.4677250000000         1.565890644158124E-008
   43.5807750000000         1.534852047341494E-008
   43.6938250000000         1.467340196004687E-008
   43.8068750000000         1.360630807765510E-008
   43.9199250000000         1.213328566478197E-008
   44.0329750000000         1.025622822485228E-008
   44.1460250000000         7.995046393274508E-009
   44.2590750000000         5.389300131783519E-009
   44.3721250000000         2.499164455649570E-009
   44.4851750000000        -5.944106831027886E-010
   44.5982250000000        -3.790454662020568E-009
   44.7112750000000        -6.969709009348234E-009
   44.8243250000000        -9.997393670001147E-009
   44.9373750000000        -1.272700782107027E-008
   45.0504250000000        -1.500510364138871E-008
   45.1634750000000        -1.667696323243859E-008
   45.2765250000000        -1.759301283441003E-008
   45.3895750000000        -1.761580211290437E-008
   45.5026250000000        -1.662728437126276E-008
   45.6156750000000        -1.453614547657179E-008
   45.7287250000000        -1.128485625848687E-008
   45.8417750000000        -6.856114083572821E-009
   45.9548250000000        -1.278343431227985E-009
   46.0678750000000         5.370097700914673E-009
   46.1809250000000         1.295831552046605E-008
   46.2939750000000         2.130216562581854E-008
   46.4070250000000         3.016567226575555E-008
   46.5200750000000         3.926473825990559E-008
   46.6331250000000         4.827324730531710E-008
   46.7461750000000         5.683154885228947E-008
   46.8592250000000         6.455724122532440E-008
   46.9722750000000         7.105803144447022E-008
   47.0853250000000         7.594637562935380E-008
   47.1983750000000         7.885547921874892E-008
   47.3114250000000         7.945614309095147E-008
   47.4244750000000         7.747385398519103E-008
   47.5375250000000         7.270546996590297E-008
   47.6505750000000         6.503475548005935E-008
   47.7636250000000         5.444605391345758E-008
   47.8766750000000         4.103534352183023E-008
   47.9897250000000         2.501798809653037E-008
   48.1027750000000         6.732531464127135E-009
   48.2158250000000        -1.335998479391060E-008
   48.3288750000000        -3.468160888676747E-008
   48.4419250000000        -5.654820548864536E-008
   48.5549750000000        -7.818541099596552E-008
   48.6680250000000        -9.874968730641110E-008
   48.7810750000000        -1.173541174514816E-007
   48.8941250000000        -1.330984003516014E-007
   49.0071750000000        -1.451022618395082E-007
   49.1202250000000        -1.525412863277706E-007
   49.2332750000000        -1.546840200517867E-007
   49.3463250000000        -1.509289972263007E-007
   49.4593750000000        -1.408402735736370E-007
   49.5724250000000        -1.241799145176115E-007
   49.6854750000000        -1.009359398322058E-007
   49.7985250000000        -7.134420552934991E-008
   49.9115750000000        -3.590282554683264E-008
   50.0246250000000         4.622088480687209E-009
   50.1376750000000         4.920038489562276E-008
   50.2507250000000         9.655226118027804E-008
   50.3637750000000         1.451734616655355E-007
   50.4768250000000         1.933713072160350E-007
   50.5898750000000         2.393111436235129E-007
   50.7029250000000         2.810723919723856E-007
   50.8159750000000         3.167129162090263E-007
   50.9290250000000         3.443400122950708E-007
   51.0420750000000         3.621859327643122E-007
   51.1551250000000         3.686854941146182E-007
   51.2681750000000         3.625530196749164E-007
   51.3812250000000         3.428556957353663E-007
   51.4942750000000         3.090802461144398E-007
   51.6073250000000         2.611898752910702E-007
   51.7203750000000         1.996684879059089E-007
   51.8334250000000         1.255494461433648E-007
   51.9464750000000         4.042644741606506E-008
   52.0595250000000        -5.355541264193685E-008
   52.1725750000000        -1.537297776772643E-007
   52.2856250000000        -2.569610584775806E-007
   52.3986750000000        -3.597183231536329E-007
   52.5117250000000        -4.581701717258794E-007
   52.6247750000000        -5.482989123748916E-007
   52.7378250000000        -6.260314730380024E-007
   52.8508750000000        -6.873836888210287E-007
   52.9639250000000        -7.286138096082571E-007
   53.0769750000000        -7.463804120504901E-007
   53.1900250000000        -7.378993411393918E-007
   53.3030750000000        -7.010938953901299E-007
   53.4161250000000        -6.347322572799598E-007
   53.5291750000000        -5.385461339823468E-007
   53.6422250000000        -4.133247519914961E-007
   53.7552750000000        -2.609787893258145E-007
   53.8683250000000        -8.456946654742189E-008
   53.9813750000000         1.117011556061835E-007
   54.0944250000000         3.225414847247921E-007
   54.2074750000000         5.416649351931041E-007
   54.3205250000000         7.619278542506313E-007
   54.4335750000000         9.755095139760730E-007
   54.5466250000000         1.174131212216132E-006
   54.6596750000000         1.349309955826450E-006
   54.7727250000000         1.492640573142107E-006
   54.8857750000000         1.596098693211123E-006
   54.9988250000000         1.652355629082242E-006
   55.1118750000000         1.655095171148365E-006
   55.2249250000000         1.599321391458911E-006
   55.3379750000000         1.481646073393909E-006
   55.4510250000000         1.300544186220027E-006
   55.5640750000000         1.056566069505352E-006
   55.6771250000000         7.524955917260783E-007
   55.7901750000000         3.934445859930502E-007
   55.9032250000000        -1.312464959410704E-008
   56.0162750000000        -4.574552254369334E-007
   56.1293250000000        -9.276341063749456E-007
   56.2423750000000        -1.409814887348749E-006
   56.3554250000000        -1.888523910323457E-006
   56.4684750000000        -2.347045882717027E-006
   56.5815250000000        -2.767882173223018E-006
   56.6945750000000        -3.133272064030483E-006
   56.8076250000000        -3.425764414612989E-006
   56.9206750000000        -3.628824597269404E-006
   57.0337250000000        -3.727459334741245E-006
   57.1467750000000        -3.708840184125421E-006
   57.2598250000000        -3.562905134271117E-006
   57.3728750000000        -3.282916977984620E-006
   57.4859250000000        -2.865957074668760E-006
   57.5989750000000        -2.313333670965603E-006
   57.7120250000000        -1.630885282313005E-006
   57.8250750000000        -8.291616611678968E-007
   57.9381250000000         7.653241693731172E-008
   58.0511750000000         1.066241904727718E-006
   58.1642250000000         2.115622190460101E-006
   58.2772750000000         3.196358729736974E-006
   58.3903250000000         4.276743705935192E-006
   58.5033750000000         5.322402779515960E-006
   58.6164250000000         6.297159776909191E-006
   58.7294750000000         7.164022068445945E-006
   58.8425250000000         7.886264457906697E-006
   58.9555750000000         8.428584915619570E-006
   59.0686250000000         8.758301525311926E-006
   59.1816750000000         8.846556752855908E-006
   59.2947250000000         8.669492781506802E-006
   59.4077750000000         8.209360187793193E-006
   59.5208250000000         7.455521927869181E-006
   59.6338750000000         6.405315360908516E-006
   59.7469250000000         5.064737024646804E-006
   59.8599750000000         3.448918021289297E-006
   59.9730250000000         1.582362170513860E-006
   60.0860750000000        -5.010754964962969E-007
   60.1991250000000        -2.758486025041656E-006
   60.3121750000000        -5.138488483953937E-006
   60.4252250000000        -7.582097625214752E-006
   60.5382750000000        -1.002387000937801E-005
   60.6513250000000        -1.239331277691304E-005
   60.7643750000000        -1.461653075978914E-005
   60.8774250000000        -1.661807931675999E-005
   60.9904750000000        -1.832298258595085E-005
   61.1035250000000        -1.965886983941935E-005
   61.2165750000000        -2.055817668538280E-005
   61.3296250000000        -2.096035318876929E-005
   61.4426750000000        -2.081401764000226E-005
   61.5557250000000        -2.007899306105329E-005
   61.6687750000000        -1.872816356020387E-005
   61.7818250000000        -1.674908941694935E-005
   61.8948750000000        -1.414532343920512E-005
   62.0079250000000        -1.093737650208449E-005
   62.1209750000000        -7.163287266353545E-006
   62.2340250000000        -2.878759757335843E-006
   62.3470750000000         1.843157524295273E-006
   62.4601250000000         6.912866089731321E-006
   62.5731750000000         1.222548862353440E-005
   62.6862250000000         1.766260731805742E-005
   62.7992750000000         2.309444700380215E-005
   62.9123250000000         2.838246803988818E-005
   63.0253750000000         3.338232162308651E-005
   63.1384250000000         3.794710888970076E-005
   63.2514750000000         4.193087487540097E-005
   63.3645250000000         4.519225978024474E-005
   63.4775750000000         4.759822300476435E-005
   63.5906250000000         4.902775058613334E-005
   63.7036750000000         4.937545389893196E-005
   63.8167250000000         4.855496722353839E-005
   63.9297750000000         4.650205375134532E-005
   64.0428250000000         4.317733409410597E-005
   64.1558750000000         3.856855809527584E-005
   64.2689250000000         3.269234969866559E-005
   64.3819750000000         2.559536552480443E-005
   64.4950250000000         1.735482043652751E-005
   64.6080750000000         8.078347379927896E-006
   64.7211250000000        -2.096826223841008E-006
   64.8341750000000        -1.300538753551411E-005
   64.9472250000000        -2.445611900959777E-005
   65.0602750000000        -3.623472126139787E-005
   65.1733250000000        -4.810723358237905E-005
   65.2863750000000        -5.982399359489479E-005
   65.3994250000000        -7.112406495422748E-005
   65.5124750000000        -8.174005112140446E-005