 -0.847875000000000        -5.864300246900967E-025
 -0.734825000000000        -1.726801900929168E-022
 -0.621775000000000        -1.565771372482906E-021
 -0.508725000000000        -8.736620058949227E-021
 -0.395675000000000        -3.803685599370012E-020
 -0.282625000000000        -1.384937245377516E-019
 -0.169575000000000        -4.341869606658012E-019
 -5.652500000000005E-002   -1.193360442884365E-018
  5.652499999999994E-002   -2.918873923817073E-018
  0.169575000000000        -6.444298355467102E-018
  0.282625000000000        -1.302024693605629E-017
  0.395675000000000        -2.438748954759264E-017
  0.508725000000000        -4.284798377144699E-017
  0.621775000000000        -7.134330912982879E-017
  0.734825000000000        -1.135400582523055E-016
  0.847875000000000        -1.739126662132371E-016
  0.960925000000000        -2.578102530592624E-016
   1.07397500000000        -3.714948033663704E-016
   1.18702500000000        -5.221459581866258E-016
   1.30007500000000        -7.178283787460268E-016
   1.41312500000000        -9.674140292603302E-016
   1.52617500000000        -1.280468017402762E-015
   1.63922500000000        -1.667090445292057E-015
   1.75227500000000        -2.137719774878970E-015
   1.86532500000000        -2.702905705108584E-015
   1.97837500000000        -3.373046034415141E-015
   2.09142500000000        -4.158104011325158E-015
   2.20447500000000        -5.067314727466554E-015
   2.31752500000000        -6.108879936125163E-015
   2.43057500000000        -7.289664273218255E-015
   2.54362500000000        -8.614921127112799E-015
   2.65667500000000        -1.008803953686012E-014
   2.76972500000000        -1.171032689236573E-014
   2.88277500000000        -1.348083294977673E-014
   2.99582500000000        -1.539623799629767E-014
   3.10887500000000        -1.745081607079002E-014
   3.22192500000000        -1.963644612022596E-014
   3.33497500000000        -2.194270948396218E-014
   3.44802500000000        -2.435705667461119E-014
   3.56107500000000        -2.686504404182337E-014
   3.67412500000000        -2.945062995195631E-014
   3.78717500000000        -3.209651384729956E-014
   3.90022500000000        -3.478453734773657E-014
   4.01327500000000        -3.749610012559048E-014
   4.12632500000000        -4.021258565908033E-014
   4.23937500000000        -4.291579926399798E-014
   4.35242500000000        -4.558837401140631E-014
   4.46547500000000        -4.821412657671000E-014
   4.57852500000000        -5.077838459678782E-014
   4.69157500000000        -5.326825117693704E-014
   4.80462500000000        -5.567277474123084E-014
   4.91767500000000        -5.798305243158672E-014
   5.03072500000000        -6.019227483968176E-014
   5.14377500000000        -6.229567148492355E-014
   5.25682500000000        -6.429038111136007E-014
   5.36987500000000        -6.617528162597406E-014
   5.48292500000000        -6.795075321219544E-014
   5.59597500000000        -6.961842536709179E-014
   5.70902500000000        -7.118091479545856E-014
   5.82207500000000        -7.264157312521421E-014
   5.93512500000000        -7.400425777079806E-014
   6.04817500000000        -7.527314043124268E-014
   6.16122500000000        -7.645256970948540E-014
   6.27427500000000        -7.754702540861851E-014
   6.38732500000000        -7.856115991701875E-014
   6.50037500000000        -7.949988537880698E-014
   6.61342500000000        -8.036856395485903E-014
   6.72647500000000        -8.117323094622825E-014
   6.83952500000000        -8.192088945652254E-014
   6.95257500000000        -8.261986453350905E-014
   7.06562500000000        -8.328014314894461E-014
   7.17867500000000        -8.391369532175066E-014
   7.29172500000000        -8.453475995868397E-014
   7.40477500000000        -8.516004289024860E-014
   7.51782500000000        -8.580887925680554E-014
   7.63087500000000        -8.650324625762486E-014
   7.74392500000000        -8.726762611366015E-014
   7.85697500000000        -8.812879759983267E-014
   7.97002500000000        -8.911541588574898E-014
   8.08307500000000        -9.025751355037346E-014
   8.19612500000000        -9.158585398376573E-014
   8.30917500000000        -9.313117247952716E-014
   8.42222500000000        -9.492338691398666E-014
   8.53527500000000        -9.699071827549327E-014
   8.64832500000000        -9.935882239800124E-014
   8.76137500000000        -1.020499449934092E-013
   8.87442500000000        -1.050821625596033E-013
   8.98747500000000        -1.084687375719844E-013
   9.10052500000000        -1.122175826736205E-013
   9.21357500000000        -1.163309210777125E-013
   9.32662500000000        -1.208051356729408E-013
   9.43967500000000        -1.256308167717311E-013
   9.55272500000000        -1.307930210169411E-013
   9.66577500000000        -1.362717249735736E-013
   9.77882500000000        -1.420424654125694E-013
   9.89187500000000        -1.480771441089922E-013
   10.0049250000000        -1.543449430609357E-013
   10.1179750000000        -1.608133399235710E-013
   10.2310250000000        -1.674491594404320E-013
   10.3440750000000        -1.742196170379768E-013
   10.4571250000000        -1.810933131852303E-013
   10.5701750000000        -1.880411373347100E-013
   10.6832250000000        -1.950370427504919E-013
   10.7962750000000        -2.020586324718126E-013
   10.9093250000000        -2.090876092212652E-013
   11.0223750000000        -2.161099824328571E-013
   11.1354250000000        -2.231160703045171E-013
   11.2484750000000        -2.301003763516128E-013
   11.3615250000000        -2.370612170644480E-013
   11.4745750000000        -2.440002369016517E-013
   11.5876250000000        -2.509218203159598E-013
   11.7006750000000        -2.578324162780192E-013
   11.8137250000000        -2.647398436288122E-013
   11.9267750000000        -2.716526351473893E-013
   12.0398250000000        -2.785794286291138E-013
   12.1528750000000        -2.855284319684058E-013
   12.2659250000000        -2.925070771519539E-013
   12.3789750000000        -2.995218026928153E-013
   12.4920250000000        -3.065779929931633E-013
   12.6050750000000        -3.136801014892761E-013
   12.7181250000000        -3.208319640600890E-013
   12.8311750000000        -3.280372225748466E-013
   12.9442250000000        -3.352998650112584E-013
   13.0572750000000        -3.426248846693428E-013
   13.1703250000000        -3.500189312786602E-013
   13.2833750000000        -3.574909742495223E-013
   13.3964250000000        -3.650529347904436E-013
   13.5094750000000        -3.727201812874355E-013
   13.6225250000000        -3.805118824299475E-013
   13.7355750000000        -3.884512053341192E-013
   13.8486250000000        -3.965653229165380E-013
   13.9616750000000        -4.048851540749075E-013
   14.0747250000000        -4.134449196332400E-013
   14.1877750000000        -4.222815057991527E-013
   14.3008250000000        -4.314335801437240E-013
   14.4138750000000        -4.409405996950798E-013
   14.5269250000000        -4.508416654815477E-013
   14.6399750000000        -4.611743082155633E-013
   14.7530250000000        -4.719732735751751E-013
   14.8660750000000        -4.832693467054848E-013
   14.9791250000000        -4.950882456752144E-013
   15.0921750000000        -5.074496649986391E-013
   15.2052250000000        -5.203665293488245E-013
   15.3182750000000        -5.338444298106851E-013
   15.4313250000000        -5.478813517789880E-013
   15.5443750000000        -5.624676767068983E-013
   15.6574250000000        -5.775864294742091E-013
   15.7704750000000        -5.932138118347187E-013
   15.8835250000000        -6.093199574713097E-013
   15.9965750000000        -6.258699105844545E-013
   16.1096250000000        -6.428247639355955E-013
   16.2226750000000        -6.601428951964833E-013
   16.3357250000000        -6.777813111370547E-013
   16.4487750000000        -6.956969470755464E-013
   16.5618250000000        -7.138479202929191E-013
   16.6748750000000        -7.321947021502964E-013
   16.7879250000000        -7.507011360020683E-013
   16.9009750000000        -7.693352189803367E-013
   17.0140250000000        -7.880696863683041E-013
   17.1270750000000        -8.068823939550563E-013
   17.2401250000000        -8.257564012617765E-013
   17.3531750000000        -8.446798256617024E-013
   17.4662250000000        -8.636454839759730E-013
   17.5792750000000        -8.826503304210457E-013
   17.6923250000000        -9.016947527777208E-013
   17.8053750000000        -9.207817098162650E-013
   17.9184250000000        -9.399158394021666E-013
   18.0314750000000        -9.591025419568551E-013
   18.1445250000000        -9.783470872841962E-013
   18.2575750000000        -9.976537989785130E-013
   18.3706250000000        -1.017025355140326E-012
   18.4836750000000        -1.036462257363806E-012
   18.5967250000000        -1.055962466315003E-012
   18.7097750000000        -1.075521265293004E-012
   18.8228250000000        -1.095131280830789E-012
   18.9358750000000        -1.114782743851348E-012
   19.0489250000000        -1.134463935684648E-012
   19.1619750000000        -1.154161747443576E-012
   19.2750250000000        -1.173862444067885E-012
   19.3880750000000        -1.193552482714012E-012
   19.5011250000000        -1.213219391462055E-012
   19.6141750000000        -1.232852668575282E-012
   19.7272250000000        -1.252444618857388E-012
   19.8402750000000        -1.271991167126722E-012
   19.9533250000000        -1.291492518960567E-012
   20.0663750000000        -1.310953698336533E-012
   20.1794250000000        -1.330384909100049E-012
   20.2924750000000        -1.349801705426268E-012
   20.4055250000000        -1.369224987094011E-012
   20.5185750000000        -1.388680773809448E-012
   20.6316250000000        -1.408199814573627E-012
   20.7446750000000        -1.427817001726404E-012
   20.8577250000000        -1.447570645947169E-012
   20.9707750000000        -1.467501640725111E-012
   21.0838250000000        -1.487652533835322E-012
   21.1968750000000        -1.508066536700112E-012
   21.3099250000000        -1.528786505294906E-012
   21.4229750000000        -1.549853965975637E-012
   21.5360250000000        -1.571308172068113E-012
   21.6490750000000        -1.593185249855008E-012
   21.7621250000000        -1.615517445957465E-012
   21.8751750000000        -1.638332507135067E-012
   21.9882250000000        -1.661653206445110E-012
   22.1012750000000        -1.685497017948317E-012
   22.2143250000000        -1.709875940329603E-012
   22.3273750000000        -1.734796472413830E-012
   22.4404250000000        -1.760259742516084E-012
   22.5534750000000        -1.786261757193722E-012
   22.6665250000000        -1.812793758005509E-012
   22.7795750000000        -1.839842692423060E-012
   22.8926250000000        -1.867391743208407E-012
   23.0056750000000        -1.895420892449301E-012
   23.1187250000000        -1.923907542839669E-012
   23.2317750000000        -1.952827138343147E-012
   23.3448250000000        -1.982153758436534E-012
   23.4578750000000        -2.011860689077987E-012
   23.5709250000000        -2.041920958429039E-012
   23.6839750000000        -2.072307828268186E-012
   23.7970250000000        -2.102995214391316E-012
   23.9100750000000        -2.133958031379518E-012
   24.0231250000000        -2.165172504114021E-012
   24.1361750000000        -2.196616403557768E-012
   24.2492250000000        -2.228269227604997E-012
   24.3622750000000        -2.260112320998837E-012
   24.4753250000000        -2.292128975514800E-012
   24.5883750000000        -2.324304491811569E-012
   24.7014250000000        -2.356626213067515E-012
   24.8144750000000        -2.389083547514643E-012
   24.9275250000000        -2.421667967205949E-012
   25.0405750000000        -2.454373047834183E-012
   25.1536250000000        -2.487194490948972E-012
   25.2666750000000        -2.520130149529727E-012
   25.3797250000000        -2.553180079606202E-012
   25.4927750000000        -2.586346584024441E-012
   25.6058250000000        -2.619634298212381E-012
   25.7188750000000        -2.653050279945246E-012
   25.8319250000000        -2.686604071696711E-012
   25.9449750000000        -2.720307787258737E-012
   26.0580250000000        -2.754176183309921E-012
   26.1710750000000        -2.788226718687987E-012
   26.2841250000000        -2.822479550769007E-012
   26.3971750000000        -2.856957526078391E-012
   26.5102250000000        -2.891686163954089E-012
   26.6232750000000        -2.926693547885871E-012
   26.7363250000000        -2.962010167108190E-012
   26.8493750000000        -2.997668725437634E-012
   26.9624250000000        -3.033703886079804E-012
   27.0754750000000        -3.070151947884454E-012
   27.1885250000000        -3.107050506179098E-012
   27.3015750000000        -3.144438038457713E-012
   27.4146250000000        -3.182353449265996E-012
   27.5276750000000        -3.220835584798256E-012
   27.6407250000000        -3.259922728229656E-012
   27.7537750000000        -3.299652089428079E-012
   27.8668250000000        -3.340059269763859E-012
   27.9798750000000        -3.381177761317409E-012
   28.0929250000000        -3.423038437906159E-012
   28.2059750000000        -3.465669101097705E-012
   28.3190250000000        -3.509094055477021E-012
   28.4320750000000        -3.553333710811684E-012
   28.5451250000000        -3.598404266828516E-012
   28.6581750000000        -3.644317420848843E-012
   28.7712250000000        -3.691080139307409E-012
   28.8842750000000        -3.738694490490009E-012
   28.9973250000000        -3.787157517686752E-012
   29.1103750000000        -3.836461170925437E-012
   29.2234250000000        -3.886592289717729E-012
   29.3364750000000        -3.937532624366804E-012
   29.4495250000000        -3.989258867538450E-012
   29.5625750000000        -4.041742758927004E-012
   29.6756250000000        -4.094951228015258E-012
   29.7886750000000        -4.148846546700974E-012
   29.9017250000000        -4.203386549129883E-012
   30.0147750000000        -4.258524901915702E-012
   30.1278250000000        -4.314211401464214E-012
   30.2408750000000        -4.370392385239970E-012
   30.3539250000000        -4.427011201505483E-012
   30.4669750000000        -4.484008759739103E-012
   30.5800250000000        -4.541324222108329E-012
   30.6930750000000        -4.598895781899148E-012
   30.8061250000000        -4.656661581037198E-012
   30.9191750000000        -4.714560748070135E-012
   31.0322250000000        -4.772534563717746E-012
   31.1452750000000        -4.830527721860934E-012
   31.2583250000000        -4.888489698735067E-012
   31.3713750000000        -4.946376167358514E-012
   31.4844250000000        -5.004150432154559E-012
   31.5974750000000        -5.061784866684461E-012
   31.7105250000000        -5.119262253293431E-012
   31.8235750000000        -5.176576971116195E-012
   31.9366250000000        -5.233735996121823E-012
   32.0496750000000        -5.290759644360486E-012
   32.1627250000000        -5.347681973706731E-012
   32.2757750000000        -5.404550775136072E-012
   32.3888250000000        -5.461427127105037E-012
   32.5018750000000        -5.518384488385745E-012
   32.6149250000000        -5.575507272301343E-012
   32.7279750000000        -5.632888891956582E-012
   32.8410250000000        -5.690629351459422E-012
   32.9540750000000        -5.748832377983456E-012
   33.0671250000000        -5.807602141885131E-012
   33.1801750000000        -5.867039717865774E-012
   33.2932250000000        -5.927239334619472E-012
   33.4062750000000        -5.988284582947791E-012
   33.5193250000000        -6.050244697615714E-012
   33.6323750000000        -6.113171095038864E-012
   33.7454250000000        -6.177094323385576E-012
   33.8584750000000        -6.242021549240233E-012
   33.9715250000000        -6.307934763734560E-012
   34.0845750000000        -6.374789837826119E-012
   34.1976250000000        -6.442516524308513E-012
   34.3106750000000        -6.511019459707120E-012
   34.4237250000000        -6.580180237609601E-012
   34.5367750000000        -6.649860537308319E-012
   34.6498250000000        -6.719906273974263E-012
   34.7628750000000        -6.790152647387775E-012
   34.8759250000000        -6.860429972072631E-012
   34.9889750000000        -6.930570128186974E-012
   35.1020250000000        -7.000413361056359E-012
   35.2150750000000        -7.069815228455849E-012
   35.3281250000000        -7.138653444688774E-012
   35.4411750000000        -7.206834289165873E-012
   35.5542250000000        -7.274298324535186E-012
   35.6672750000000        -7.341025190795782E-012
   35.7803250000000        -7.407037189351994E-012
   35.8933750000000        -7.472401465953027E-012
   36.0064250000000        -7.537230667495135E-012
   36.1194750000000        -7.601681901622091E-012
   36.2325250000000        -7.665954026479657E-012
   36.3455750000000        -7.730283274857027E-012
   36.4586250000000        -7.794937260379934E-012
   36.5716750000000        -7.860207575521118E-012
   36.6847250000000        -7.926401195735681E-012
   36.7977750000000        -7.993830947614422E-012
   36.9108250000000        -8.062805335745051E-012
   37.0238750000000        -8.133618126323315E-012
   37.1369250000000        -8.206538008836242E-012
   37.2499750000000        -8.281798716590651E-012
   37.3630250000000        -8.359589928611145E-012
   37.4760750000000        -8.440049316665418E-012
   37.5891250000000        -8.523256004846838E-012
   37.7021750000000        -8.609225612351296E-012
   37.8152250000000        -8.697907090472146E-012
   37.9282750000000        -8.789181430617638E-012
   38.0413250000000        -8.882862285040468E-012
   38.1543750000000        -8.978698392725138E-012
   38.2674250000000        -9.076377730648276E-012
   38.3804750000000        -9.175533234658896E-012
   38.4935250000000        -9.275749874144841E-012
   38.6065750000000        -9.376572835729076E-012
   38.7196250000000        -9.477516576150928E-012
   38.8326750000000        -9.578074508857452E-012
   38.9457250000000        -9.677729120677871E-012
   39.0587750000000        -9.775962316565125E-012
   39.1718250000000        -9.872265868316695E-012
   39.2848750000000        -9.966151904748605E-012
   39.3979250000000        -1.005716338016004E-011
   39.5109750000000        -1.014488461613400E-011
   39.6240250000000        -1.022895188579033E-011
   39.7370750000000        -1.030906423339650E-011
   39.8501250000000        -1.038499458770800E-011
   39.9631750000000        -1.045660121493240E-011
   40.0762250000000        -1.052383961450739E-011
   40.1892750000000        -1.058677474633944E-011
   40.3023250000000        -1.064559350997958E-011
   40.4153750000000        -1.070061711850177E-011
   40.5284250000000        -1.075231297906816E-011
   40.6414750000000        -1.080130553888086E-011
   40.7545250000000        -1.084838525217630E-011
   40.8675750000000        -1.089451479962426E-011
   40.9806250000000        -1.094083154607877E-011
   41.0936750000000        -1.098864503785448E-011
   41.2067250000000        -1.103942840650065E-011
   41.3197750000000        -1.109480253514244E-011
   41.4328250000000        -1.115651182235182E-011
   41.5458750000000        -1.122639070573826E-011
   41.6589250000000        -1.130632035155603E-011
   41.7719750000000        -1.139817517823843E-011
   41.8850250000000        -1.150375942574755E-011
   41.9980750000000        -1.162473443891911E-011
   42.1111250000000        -1.176253796388259E-011
   42.2241750000000        -1.191829738421192E-011
   42.3372250000000        -1.209273945273115E-011
   42.4502750000000        -1.228609973983601E-011
   42.5633250000000        -1.249803558480462E-011
   42.6763750000000        -1.272754679611295E-011
   42.7894250000000        -1.297290885189498E-011
   42.9024750000000        -1.323162349914965E-011
   43.0155250000000        -1.350039163095928E-011
   43.1285750000000        -1.377511322400471E-011
   43.2416250000000        -1.405091858238774E-011
   43.3546750000000        -1.432223449255130E-011
   43.4677250000000        -1.458288789352312E-011
   43.5807750000000        -1.482624837877143E-011
   43.6938250000000        -1.504540946113023E-011
   43.8068750000000        -1.523340684324756E-011
   43.9199250000000        -1.538346998280316E-011
   44.0329750000000        -1.548930144608244E-011
   44.1460250000000        -1.554537662293197E-011
   44.2590750000000        -1.554725438551445E-011
   44.3721250000000        -1.549188763290683E-011
   44.4851750000000        -1.537792123492811E-011
   44.5982250000000        -1.520596368171430E-011
   44.7112750000000        -1.497881813709563E-011
   44.8243250000000        -1.470165847754820E-011
   44.9373750000000        -1.438213621826726E-011
   45.0504250000000        -1.403040544995858E-011
   45.1634750000000        -1.365905459476298E-011
   45.2765250000000        -1.328293621418968E-011
   45.3895750000000        -1.291888917947547E-011
   45.5026250000000        -1.258535122538458E-011
   45.6156750000000        -1.230186409479993E-011
   45.7287250000000        -1.208847793853693E-011
   45.8417750000000        -1.196506657359738E-011
   45.9548250000000        -1.195056998486330E-011
   46.0678750000000        -1.206218525761167E-011
   46.1809250000000        -1.231453153827804E-011
   46.2939750000000        -1.271881840795652E-011
   46.4070250000000        -1.328205023476534E-011
   46.5200750000000        -1.400630115806496E-011
   46.6331250000000        -1.488809631390671E-011
   46.7461750000000        -1.591793454203672E-011
   46.8592250000000        -1.707998604631497E-011
   46.9722750000000        -1.835199517305813E-011
   47.0853250000000        -1.970541357408720E-011
   47.1983750000000        -2.110578279698741E-011
   47.3114250000000        -2.251337757808635E-011
   47.4244750000000        -2.388411213376400E-011
   47.5375250000000        -2.517070198651184E-011
   47.6505750000000        -2.632406317611533E-011
   47.7636250000000        -2.729491977704326E-011
   47.8766750000000        -2.803557988573539E-011
   47.9897250000000        -2.850182985283866E-011
   48.1027750000000        -2.865488711665977E-011
   48.2158250000000        -2.846334403458404E-011
   48.3288750000000        -2.790502897034705E-011
   48.4419250000000        -2.696870701409493E-011
   48.5549750000000        -2.565554146057840E-011
   48.6680250000000        -2.398023871002929E-011
   48.7810750000000        -2.197180412150205E-011
   48.8941250000000        -1.967384423387678E-011
   49.0071750000000        -1.714436182180226E-011
   49.1202250000000        -1.445500450968527E-011
   49.2332750000000        -1.168974452679664E-011
   49.3463250000000        -8.942986505738611E-012
   49.4593750000000        -6.317121275121581E-012
   49.5724250000000        -3.919566000758691E-012
   49.6854750000000        -1.859353773026878E-012
   49.7985250000000        -2.433580071351286E-013
   49.9115750000000         8.277416852122136E-013
   50.0246250000000         1.263626606415559E-012
   50.1376750000000         9.884976768923273E-013
   50.2507250000000        -5.492773751139752E-014
   50.3637750000000        -1.901741579686693E-012
   50.4768250000000        -4.561656034084789E-012
   50.5898750000000        -8.016458239964096E-012
   50.7029250000000        -1.221825720125432E-011
   50.8159750000000        -1.708865473405994E-011
   50.9290250000000        -2.251894933471985E-011
   51.0420750000000        -2.837145312386301E-011
   51.1551250000000        -3.448196788954341E-011
   51.2681750000000        -4.066342747129161E-011
   51.3812250000000        -4.671067167830185E-011
   51.4942750000000        -5.240627260249921E-011
   51.6073250000000        -5.752728917360967E-011
   51.7203750000000        -6.185278170739906E-011
   51.8334250000000        -6.517187666431772E-011
   51.9464750000000        -6.729213471154697E-011
   52.0595250000000        -6.804794401302135E-011
   52.1725750000000        -6.730863722774984E-011
   52.2856250000000        -6.498601644578335E-011
   52.3986750000000        -6.104096624176145E-011
   52.5117250000000        -5.548884249032491E-011
   52.6247750000000        -4.840334394016961E-011
   52.7378250000000        -3.991860499403933E-011
   52.8508750000000        -3.022929163875306E-011
   52.9639250000000        -1.958853715872126E-011
   53.0769750000000        -8.303619268797298E-012
   53.1900250000000         3.270646228533932E-012
   53.3030750000000         1.474074001187245E-011
   53.4161250000000         2.568536252294649E-011
   53.5291750000000         3.566822073076266E-011
   53.6422250000000         4.425236879492071E-011
   53.7552750000000         5.101571347758035E-011
   53.8683250000000         5.556722358270087E-011
   53.9813750000000         5.756332183601345E-011
   54.0944250000000         5.672389097812680E-011
   54.2074750000000         5.284729594021025E-011
   54.3205250000000         4.582381293949101E-011
   54.4335750000000         3.564686619084386E-011
   54.5466250000000         2.242150472088748E-011
   54.6596750000000         6.369605958627279E-012
   54.7727250000000        -1.216863081460066E-011
   54.8857750000000        -3.273724078461034E-011
   54.9988250000000        -5.477132279419535E-011
   55.1118750000000        -7.760823165002251E-011
   55.2249250000000        -1.005030781547077E-010
   55.3379750000000        -1.226483269741330E-010
   55.4510250000000        -1.431971241524542E-010
   55.5640750000000        -1.612898291512358E-010
   55.6771250000000        -1.760830762920894E-010
   55.7901750000000        -1.867805528067233E-010
   55.9032250000000        -1.926645615659013E-010
   56.0162750000000        -1.931273408333840E-010
   56.1293250000000        -1.877010461138881E-010
   56.2423750000000        -1.760852647978981E-010
   56.3554250000000        -1.581709359973062E-010
   56.4684750000000        -1.340595881757583E-010
   56.5815250000000        -1.040768872262684E-010
   56.6945750000000        -6.877960742465073E-011
   56.8076250000000        -2.895529562451210E-011
   56.9206750000000         1.438590730502640E-011
   57.0337250000000         6.002759903419697E-011
   57.1467750000000         1.065716628458265E-010
   57.2598250000000         1.524708200281501E-010
   57.3728750000000         1.960686973178243E-010
   57.4859250000000         2.356466353162438E-010
   57.5989750000000         2.694761866473860E-010
   57.7120250000000         2.958759915019699E-010
   57.8250750000000         3.132714830526301E-010
   57.9381250000000         3.202556750389085E-010
   58.0511750000000         3.156491276422855E-010
   58.1642250000000         2.985570834415463E-010
   58.2772750000000         2.684217190432754E-010
   58.3903250000000         2.250674753947886E-010
   58.5033750000000         1.687375139259264E-010
   58.6164250000000         1.001194977480828E-010
   58.7294750000000         2.035911651578711E-011
   58.8425250000000        -6.893994278168078E-011
   58.9555750000000        -1.657305342594016E-010
   59.0686250000000        -2.675516619265533E-010
   59.1816750000000        -3.715732837774419E-010
   59.2947250000000        -4.746559695141978E-010
   59.4077750000000        -5.734245857242324E-010
   59.5208250000000        -6.643546944455227E-010
   59.6338750000000        -7.438698748338869E-010
   59.7469250000000        -8.084477283959618E-010
   59.8599750000000        -8.547319216935219E-010
   59.9730250000000        -8.796472712083590E-010
   60.0860750000000        -8.805145973935744E-010
   60.1991250000000        -8.551618808883742E-010
   60.3121750000000        -8.020281539247411E-010
   60.4252250000000        -7.202565622578006E-010
   60.5382750000000        -6.097731423821916E-010
   60.6513250000000        -4.713480778399630E-010
   60.7643750000000        -3.066365257747581E-010
   60.8774250000000        -1.181965362450316E-010
   60.9904750000000         9.051788585169039E-011
   61.1035250000000         3.151899141431075E-010
   61.2165750000000         5.506998840368515E-010
   61.3296250000000         7.912120438166516E-010
   61.4426750000000         1.030287220154762E-009
   61.5557250000000         1.261019759894507E-009
   61.6687750000000         1.476196334800771E-009
   61.7818250000000         1.668473452811554E-009
   61.8948750000000         1.830569831720340E-009
   62.0079250000000         1.955469181455899E-009
   62.1209750000000         2.036628429804470E-009
   62.2340250000000         2.068186032706981E-009
   62.3470750000000         2.045164749779478E-009
   62.4601250000000         1.963663151029297E-009
   62.5731750000000         1.821030160873584E-009
   62.6862250000000         1.616017144622001E-009
   62.7992750000000         1.348902400570218E-009
   62.9123250000000         1.021583432938593E-009
   63.0253750000000         6.376330378933211E-010
   63.1384250000000         2.023160224179001E-010
   63.2514750000000        -2.774357240459067E-010
   63.3645250000000        -7.930910943673640E-010
   63.4775750000000        -1.334630797934591E-009
   63.5906250000000        -1.890700703402200E-009
   63.7036750000000        -2.448805526662036E-009
   63.8167250000000        -2.995539820410000E-009
   63.9297750000000        -3.516852193553786E-009
   64.0428250000000        -3.998337741899660E-009
   64.1558750000000        -4.425552833760854E-009
   64.2689250000000        -4.784345689630028E-009
   64.3819750000000        -5.061195645006467E-009
   64.4950250000000        -5.243553606578168E-009
   64.6080750000000        -5.320176016104371E-009
   64.7211250000000        -5.281444629809949E-009
   64.8341750000000        -5.119664605236518E-009
   64.9472250000000        -4.829333757372152E-009
   65.0602750000000        -4.407376391133245E-009
   65.1733250000000        -3.853335822796984E-009
   65.2863750000000        -3.169520548280017E-009
   65.3994250000000        -2.361099976866368E-009
   65.5124750000000        -1.436146697621782E-009