 -0.847875000000000         5.240729172587580E-021
 -0.734825000000000         1.463586588831123E-018
 -0.621775000000000         1.321395360607031E-017
 -0.508725000000000         7.345036867716180E-017
 -0.395675000000000         3.186388383412898E-016
 -0.282625000000000         1.155882822584659E-015
 -0.169575000000000         3.608706939249306E-015
 -5.652500000000005E-002    9.870263657610040E-015
  5.652499999999994E-002    2.400337188374911E-014
  0.169575000000000         5.263835780916430E-014
  0.282625000000000         1.055296704898467E-013
  0.395675000000000         1.959470299211717E-013
  0.508725000000000         3.410093867689760E-013
  0.621775000000000         5.620676437103785E-013
  0.734825000000000         8.851547366350922E-013
  0.847875000000000         1.341439757110218E-012
  0.960925000000000         1.967583349284641E-012
   1.07397500000000         2.805901471310445E-012
   1.18702500000000         3.904299281086158E-012
   1.30007500000000         5.315943947081819E-012
   1.41312500000000         7.098629405755313E-012
   1.52617500000000         9.313888895897380E-012
   1.63922500000000         1.202580088041710E-011
   1.75227500000000         1.529955592628927E-011
   1.86532500000000         1.919981760491414E-011
   1.97837500000000         2.378884469910342E-011
   2.09142500000000         2.912450952778740E-011
   2.20447500000000         3.525824968199609E-011
   2.31752500000000         4.223298900241786E-011
   2.43057500000000         5.008108030436100E-011
   2.54362500000000         5.882251170944480E-011
   2.65667500000000         6.846328918914064E-011
   2.76972500000000         7.899409462162653E-011
   2.88277500000000         9.038928453150067E-011
   2.99582500000000         1.026063518801936E-010
   3.10887500000000         1.155859483271258E-010
   3.22192500000000         1.292523034777743E-010
   3.33497500000000         1.435141967585955E-010
   3.44802500000000         1.582664527488782E-010
   3.56107500000000         1.733919218672479E-010
   3.67412500000000         1.887638622936044E-010
   3.78717500000000         2.042485771917056E-010
   3.90022500000000         2.197084592060255E-010
   4.01327500000000         2.350051051908767E-010
   4.12632500000000         2.500023427528713E-010
   4.23937500000000         2.645693987253632E-010
   4.35242500000000         2.785837012863615E-010
   4.46547500000000         2.919332483590622E-010
   4.57852500000000         3.045186957138264E-010
   4.69157500000000         3.162549088713795E-010
   4.80462500000000         3.270718521802157E-010
   4.91767500000000         3.369149050990194E-010
   5.03072500000000         3.457447403382804E-010
   5.14377500000000         3.535364879638252E-010
   5.25682500000000         3.602783604798977E-010
   5.36987500000000         3.659700816334351E-010
   5.48292500000000         3.706208633912738E-010
   5.59597500000000         3.742473299783945E-010
   5.70902500000000         3.768715222708386E-010
   5.82207500000000         3.785190501671717E-010
   5.93512500000000         3.792175784057163E-010
   6.04817500000000         3.789957131252534E-010
   6.16122500000000         3.778823912798580E-010
   6.27427500000000         3.759070718360108E-010
   6.38732500000000         3.731006262514001E-010
   6.50037500000000         3.694966836186385E-010
   6.61342500000000         3.651337961094860E-010
   6.72647500000000         3.600578002900807E-010
   6.83952500000000         3.543246997423156E-010
   6.95257500000000         3.480039452533353E-010
   7.06562500000000         3.411814874295237E-010
   7.17867500000000         3.339625786039877E-010
   7.29172500000000         3.264741184777468E-010
   7.40477500000000         3.188662034309154E-010
   7.51782500000000         3.113131529369861E-010
   7.63087500000000         3.040132298530315E-010
   7.74392500000000         2.971871099343013E-010
   7.85697500000000         2.910754860627502E-010
   7.97002500000000         2.859350509300011E-010
   8.08307500000000         2.820337304056292E-010
   8.19612500000000         2.796446101150490E-010
   8.30917500000000         2.790391125102098E-010
   8.42222500000000         2.804799022285133E-010
   8.53527500000000         2.842131608150986E-010
   8.64832500000000         2.904610618187568E-010
   8.76137500000000         2.994146298362238E-010
   8.87442500000000         3.112273839992624E-010
   8.98747500000000         3.260100706004671E-010
   9.10052500000000         3.438266119493414E-010
   9.21357500000000         3.646916996954502E-010
   9.32662500000000         3.885700833044670E-010
   9.43967500000000         4.153777064795605E-010
   9.55272500000000         4.449846250642660E-010
   9.66577500000000         4.772195209332241E-010
   9.77882500000000         5.118758415856684E-010
   9.89187500000000         5.487192715613251E-010
   10.0049250000000         5.874960155324270E-010
   10.1179750000000         6.279417853510977E-010
   10.2310250000000         6.697909258650980E-010
   10.3440750000000         7.127853014881930E-010
   10.4571250000000         7.566825759205844E-010
   10.5701750000000         8.012635083800424E-010
   10.6832250000000         8.463379436326991E-010
   10.7962750000000         8.917490326541505E-010
   10.9093250000000         9.373761194011237E-010
   11.0223750000000         9.831354335417505E-010
   11.1354250000000         1.028978982163580E-009
   11.2484750000000         1.074892252875636E-009
   11.3615250000000         1.120889871422324E-009
   11.4745750000000         1.167010323190815E-009
   11.5876250000000         1.213309909793647E-009
   11.7006750000000         1.259856125244993E-009
   11.8137250000000         1.306721007609361E-009
   11.9267750000000         1.353975084329421E-009
   12.0398250000000         1.401681927779099E-009
   12.1528750000000         1.449893681138946E-009
   12.2659250000000         1.498648387530709E-009
   12.3789750000000         1.547968650978788E-009
   12.4920250000000         1.597861988285290E-009
   12.6050750000000         1.648322914233353E-009
   12.7181250000000         1.699336733820269E-009
   12.8311750000000         1.750884479041565E-009
   12.9442250000000         1.802948944627937E-009
   13.0572750000000         1.855521683315610E-009
   13.1703250000000         1.908609939318823E-009
   13.2833750000000         1.962243589060924E-009
   13.3964250000000         2.016481628655866E-009
   13.5094750000000         2.071417401911927E-009
   13.6225250000000         2.127182354317039E-009
   13.7355750000000         2.183948170766959E-009
   13.8486250000000         2.241927102960899E-009
   13.9616750000000         2.301369777340979E-009
   14.0747250000000         2.362561138594522E-009
   14.1877750000000         2.425814476628543E-009
   14.3008250000000         2.491463309807226E-009
   14.4138750000000         2.559852093362125E-009
   14.5269250000000         2.631325483558054E-009
   14.6399750000000         2.706217107775944E-009
   14.7530250000000         2.784838157394098E-009
   14.8660750000000         2.867466371831530E-009
   14.9791250000000         2.954335798498667E-009
   15.0921750000000         3.045627883011877E-009
   15.2052250000000         3.141464476930811E-009
   15.3182750000000         3.241902634448081E-009
   15.4313250000000         3.346932003498832E-009
   15.5443750000000         3.456474720489291E-009
   15.6574250000000         3.570387587694360E-009
   15.7704750000000         3.688466811311616E-009
   15.8835250000000         3.810454776097815E-009
   15.9965750000000         3.936048750489794E-009
   16.1096250000000         4.064911011476203E-009
   16.2226750000000         4.196679848052872E-009
   16.3357250000000         4.330981415271816E-009
   16.4487750000000         4.467441168704232E-009
   16.5618250000000         4.605694886952603E-009
   16.6748750000000         4.745398877616647E-009
   16.7879250000000         4.886238682843281E-009
   16.9009750000000         5.027935814023639E-009
   17.0140250000000         5.170252680372419E-009
   17.1270750000000         5.312995655609378E-009
   17.2401250000000         5.456015637369015E-009
   17.3531750000000         5.599206603605746E-009
   17.4662250000000         5.742502331641264E-009
   17.5792750000000         5.885871467450987E-009
   17.6923250000000         6.029311447425125E-009
   17.8053750000000         6.172841119632781E-009
   17.9184250000000         6.316493236920155E-009
   18.0314750000000         6.460306865617273E-009
   18.1445250000000         6.604320054802479E-009
   18.2575750000000         6.748563314697087E-009
   18.3706250000000         6.893054131245006E-009
   18.4836750000000         7.037792972798347E-009
   18.5967250000000         7.182760741263167E-009
   18.7097750000000         7.327918116704546E-009
   18.8228250000000         7.473206233609493E-009
   18.9358750000000         7.618549261446417E-009
   19.0489250000000         7.763858475932820E-009
   19.1619750000000         7.909037083888922E-009
   19.2750250000000         8.053986654892863E-009
   19.3880750000000         8.198613797955786E-009
   19.5011250000000         8.342837146430128E-009
   19.6141750000000         8.486594401764671E-009
   19.7272250000000         8.629848635932669E-009
   19.8402750000000         8.772594247214576E-009
   19.9533250000000         8.914861575997518E-009
   20.0663750000000         9.056720443630927E-009
   20.1794250000000         9.198282167126856E-009
   20.2924750000000         9.339700067653962E-009
   20.4055250000000         9.481168551764685E-009
   20.5185750000000         9.622920534119661E-009
   20.6316250000000         9.765223636689935E-009
   20.7446750000000         9.908374958975187E-009
   20.8577250000000         1.005269496088033E-008
   20.9707750000000         1.019852059489330E-008
   21.0838250000000         1.034619791648466E-008
   21.1968750000000         1.049607438675302E-008
   21.3099250000000         1.064849114727029E-008
   21.4229750000000         1.080377578171907E-008
   21.5360250000000         1.096223542747872E-008
   21.6490750000000         1.112415063888549E-008
   21.7621250000000         1.128977018675200E-008
   21.8751750000000         1.145930681126728E-008
   21.9882250000000         1.163293401707687E-008
   22.1012750000000         1.181078405314828E-008
   22.2143250000000         1.199294691739430E-008
   22.3273750000000         1.217947038464106E-008
   22.4404250000000         1.237036106948723E-008
   22.5534750000000         1.256558631424694E-008
   22.6665250000000         1.276507677104547E-008
   22.7795750000000         1.296872973040387E-008
   22.8926250000000         1.317641281220438E-008
   23.0056750000000         1.338796790993511E-008
   23.1187250000000         1.360321556705434E-008
   23.2317750000000         1.382195929745884E-008
   23.3448250000000         1.404398982938126E-008
   23.4578750000000         1.426908932277640E-008
   23.5709250000000         1.449703534383920E-008
   23.6839750000000         1.472760471551748E-008
   23.7970250000000         1.496057695645824E-008
   23.9100750000000         1.519573731806456E-008
   24.0231250000000         1.543287975583888E-008
   24.1361750000000         1.567180939667578E-008
   24.2492250000000         1.591234466950392E-008
   24.3622750000000         1.615431911352458E-008
   24.4753250000000         1.639758302433508E-008
   24.5883750000000         1.664200472677460E-008
   24.7014250000000         1.688747162258424E-008
   24.8144750000000         1.713389103041380E-008
   24.9275250000000         1.738119070189556E-008
   25.0405750000000         1.762931945289307E-008
   25.1536250000000         1.787824749126642E-008
   25.2666750000000         1.812796656895408E-008
   25.3797250000000         1.837849013762281E-008
   25.4927750000000         1.862985330564028E-008
   25.6058250000000         1.888211288646765E-008
   25.7188750000000         1.913534740123415E-008
   25.8319250000000         1.938965684364306E-008
   25.9449750000000         1.964516255019750E-008
   26.0580250000000         1.990200699944812E-008
   26.1710750000000         2.016035356260782E-008
   26.2841250000000         2.042038582925532E-008
   26.3971750000000         2.068230710134519E-008
   26.5102250000000         2.094633994549311E-008
   26.6232750000000         2.121272512575200E-008
   26.7363250000000         2.148172040676202E-008
   26.8493750000000         2.175359919424704E-008
   26.9624250000000         2.202864876426124E-008
   27.0754750000000         2.230716808193756E-008
   27.1885250000000         2.258946559385436E-008
   27.3015750000000         2.287585626165478E-008
   27.4146250000000         2.316665834540457E-008
   27.5276750000000         2.346218989640578E-008
   27.6407250000000         2.376276479267670E-008
   27.7537750000000         2.406868869875630E-008
   27.8668250000000         2.438025455808957E-008
   27.9798750000000         2.469773818022755E-008
   28.0929250000000         2.502139359059847E-008
   28.2059750000000         2.535144856780198E-008
   28.3190250000000         2.568810030794695E-008
   28.4320750000000         2.603151125419690E-008
   28.5451250000000         2.638180547545552E-008
   28.6581750000000         2.673906527457327E-008
   28.7712250000000         2.710332846566448E-008
   28.8842750000000         2.747458627600185E-008
   28.9973250000000         2.785278181893093E-008
   29.1103750000000         2.823780940200876E-008
   29.2234250000000         2.862951459640094E-008
   29.3364750000000         2.902769499034416E-008
   29.4495250000000         2.943210156918763E-008
   29.5625750000000         2.984244107846687E-008
   29.6756250000000         3.025837905605850E-008
   29.7886750000000         3.067954338693327E-008
   29.9017250000000         3.110552872520132E-008
   30.0147750000000         3.153590152465158E-008
   30.1278250000000         3.197020547965255E-008
   30.2408750000000         3.240796779372934E-008
   30.3539250000000         3.284870585702785E-008
   30.4669750000000         3.329193435951025E-008
   30.5800250000000         3.373717307439274E-008
   30.6930750000000         3.418395487293428E-008
   30.8061250000000         3.463183419611765E-008
   30.9191750000000         3.508039571061060E-008
   31.0322250000000         3.552926315815154E-008
   31.1452750000000         3.597810810854887E-008
   31.2583250000000         3.642665862126373E-008
   31.3713750000000         3.687470733791208E-008
   31.4844250000000         3.732211884530861E-008
   31.5974750000000         3.776883628214244E-008
   31.7105250000000         3.821488639690449E-008
   31.8235750000000         3.866038290487260E-008
   31.9366250000000         3.910552793965872E-008
   32.0496750000000         3.955061126828327E-008
   32.1627250000000         3.999600691354943E-008
   32.2757750000000         4.044216681059809E-008
   32.3888250000000         4.088961159833297E-008
   32.5018750000000         4.133891857720435E-008
   32.6149250000000         4.179070670429267E-008
   32.7279750000000         4.224561879832250E-008
   32.8410250000000         4.270430167840136E-008
   32.9540750000000         4.316738453087177E-008
   33.0671250000000         4.363545591291004E-008
   33.1801750000000         4.410904066059693E-008
   33.2932250000000         4.458857728481211E-008
   33.4062750000000         4.507439689821621E-008
   33.5193250000000         4.556670463426247E-008
   33.6323750000000         4.606556464087161E-008
   33.7454250000000         4.657088964423094E-008
   33.8584750000000         4.708243574553136E-008
   33.9715250000000         4.759980323507998E-008
   34.0845750000000         4.812244405800752E-008
   34.1976250000000         4.864967605420802E-008
   34.3106750000000         4.918070378409376E-008
   34.4237250000000         4.971464575393346E-008
   34.5367750000000         5.025056737593657E-008
   34.6498250000000         5.078751874158283E-008
   34.7628750000000         5.132457561490947E-008
   34.8759250000000         5.186088233225383E-008
   34.9889750000000         5.239569493215626E-008
   35.1020250000000         5.292842220458820E-008
   35.2150750000000         5.345866298350139E-008
   35.3281250000000         5.398623790734335E-008
   35.4411750000000         5.451121335004807E-008
   35.5542250000000         5.503391609056239E-008
   35.6672750000000         5.555493773455203E-008
   35.7803250000000         5.607512758779875E-008
   35.8933750000000         5.659557368198845E-008
   36.0064250000000         5.711757230452598E-008
   36.1194750000000         5.764258620970443E-008
   36.2325250000000         5.817219329071599E-008
   36.3455750000000         5.870802731867783E-008
   36.4586250000000         5.925171272673309E-008
   36.5716750000000         5.980479647360590E-008
   36.6847250000000         6.036868003506737E-008
   36.7977750000000         6.094455452962955E-008
   36.9108250000000         6.153334205422104E-008
   37.0238750000000         6.213564674424586E-008
   37.1369250000000         6.275171792230213E-008
   37.2499750000000         6.338142791487456E-008
   37.3630250000000         6.402426592424527E-008
   37.4760750000000         6.467934934097458E-008
   37.5891250000000         6.534545256818413E-008
   37.7021750000000         6.602105219626351E-008
   37.8152250000000         6.670438731079624E-008
   37.9282750000000         6.739353229118339E-008
   38.0413250000000         6.808647893723852E-008
   38.1543750000000         6.878122358411949E-008
   38.2674250000000         6.947585496344446E-008
   38.3804750000000         7.016863810575907E-008
   38.4935250000000         7.085808955788440E-008
   38.6065750000000         7.154303927471623E-008
   38.7196250000000         7.222267529888502E-008
   38.8326750000000         7.289656798615407E-008
   38.9457250000000         7.356467174058251E-008
   39.0587750000000         7.422730314121692E-008
   39.1718250000000         7.488509601631828E-008
   39.2848750000000         7.553893558553735E-008
   39.3979250000000         7.618987471277633E-008
   39.5109750000000         7.683903766127053E-008
   39.6240250000000         7.748751667285528E-008
   39.7370750000000         7.813626925962133E-008
   39.8501250000000         7.878602349184624E-008
   39.9631750000000         7.943719903740952E-008
   40.0762250000000         8.008985226334939E-008
   40.1892750000000         8.074365182233242E-008
   40.3023250000000         8.139789103255062E-008
   40.4153750000000         8.205154054015210E-008
   40.5284250000000         8.270334350610213E-008
   40.6414750000000         8.335195280617367E-008
   40.7545250000000         8.399610613633369E-008
   40.8675750000000         8.463483295085907E-008
   40.9806250000000         8.526768385896917E-008
   41.0936750000000         8.589496988321742E-008
   41.2067250000000         8.651799732413736E-008
   41.3197750000000         8.713928187311801E-008
   41.4328250000000         8.776272362818824E-008
   41.5458750000000         8.839372543478832E-008
   41.6589250000000         8.903923749374756E-008
   41.7719750000000         8.970771215428733E-008
   41.8850250000000         9.040895641115351E-008
   41.9980750000000         9.115387297001096E-008
   42.1111250000000         9.195408602762087E-008
   42.2241750000000         9.282145365492452E-008
   42.3372250000000         9.376747496161802E-008
   42.4502750000000         9.480260731818295E-008
   42.5633250000000         9.593551585063963E-008
   42.6763750000000         9.717228368517321E-008
   42.7894250000000         9.851561861807299E-008
   42.9024750000000         9.996409660630883E-008
   43.0155250000000         1.015114858063126E-007
   43.1285750000000         1.031461978765154E-007
   43.2416250000000         1.048509126255793E-007
   43.3546750000000         1.066024203909148E-007
   43.4677250000000         1.083717217247357E-007
   43.5807750000000         1.101244165311059E-007
   43.6938250000000         1.118214056966573E-007
   43.8068750000000         1.134199163065384E-007
   43.9199250000000         1.148748468428297E-007
   44.0329750000000         1.161404141154412E-007
   44.1460250000000         1.171720674132308E-007
   44.2590750000000         1.179286176005597E-007
   44.3721250000000         1.183745130613644E-007
   44.4851750000000         1.184821792683576E-007
   44.5982250000000         1.182343247547245E-007
   44.7112750000000         1.176261065032004E-007
   44.8243250000000         1.166670410242502E-007
   44.9373750000000         1.153825442299674E-007
   45.0504250000000         1.138149866295518E-007
   45.1634750000000         1.120241577995088E-007
   45.2765250000000         1.100870474023301E-007
   45.3895750000000         1.080968691374332E-007
   45.5026250000000         1.061612786739157E-007
   45.6156750000000         1.043997658017668E-007
   45.7287250000000         1.029402336786926E-007
   45.8417750000000         1.019148153301077E-007
   45.9548250000000         1.014550151190836E-007
   46.0678750000000         1.016863015291776E-007
   46.1809250000000         1.027223150865162E-007
   46.2939750000000         1.046588887833099E-007
   46.4070250000000         1.075681083201312E-007
   46.5200750000000         1.114926622750942E-007
   46.6331250000000         1.164407469091684E-007
   46.7461750000000         1.223817955119771E-007
   46.8592250000000         1.292432968711142E-007
   46.9722750000000         1.369089501587744E-007
   47.0853250000000         1.452183742686222E-007
   47.1983750000000         1.539685491139112E-007
   47.3114250000000         1.629171135649671E-007
   47.4244750000000         1.717875816496960E-007
   47.5375250000000         1.802764679360316E-007
   47.6505750000000         1.880622341793647E-007
   47.7636250000000         1.948158869303332E-007
   47.8766750000000         2.002129729203629E-007
   47.9897250000000         2.039466374900907E-007
   48.1027750000000         2.057413356082569E-007
   48.2158250000000         2.053667188087909E-007
   48.3288750000000         2.026511677259905E-007
   48.4419250000000         1.974944024684203E-007
   48.5549750000000         1.898785847966277E-007
   48.6680250000000         1.798773283650859E-007
   48.7810750000000         1.676620608011460E-007
   48.8941250000000         1.535052322323268E-007
   49.0071750000000         1.377799398019743E-007
   49.1202250000000         1.209556382418189E-007
   49.2332750000000         1.035897277987144E-007
   49.3463250000000         8.631495199707051E-008
   49.4593750000000         6.982269396510403E-008
   49.5724250000000         5.484242783324621E-008
   49.6854750000000         4.211775416612281E-008
   49.7985250000000         3.237961894956086E-008
   49.9115750000000         2.631748051797965E-008
   50.0246250000000         2.454933685531581E-008
   50.1376750000000         2.759165216291171E-008
   50.2507250000000         3.583032048235200E-008
   50.3637750000000         4.949386696621164E-008
   50.4768250000000         6.863011002724242E-008
   50.5898750000000         9.308748556094786E-008
   50.7029250000000         1.225021649105060E-007
   50.8159750000000         1.562919794554602E-007
   50.9290250000000         1.936579962391544E-007
   51.0420750000000         2.335943752836359E-007
   51.1551250000000         2.749068826879676E-007
   51.2681750000000         3.162401396799210E-007
   51.3812250000000         3.561133673184872E-007
   51.4942750000000         3.929640464315475E-007
   51.6073250000000         4.251985650439939E-007
   51.7203750000000         4.512485840237031E-007
   51.8334250000000         4.696315277458384E-007
   51.9464750000000         4.790133151292851E-007
   52.0595250000000         4.782712003698927E-007
   52.1725750000000         4.665544049870997E-007
   52.2856250000000         4.433401054734473E-007
   52.3986750000000         4.084823034267430E-007
   52.5117250000000         3.622511562536785E-007
   52.6247750000000         3.053604912748825E-007
   52.7378250000000         2.389814662394187E-007
   52.8508750000000         1.647406742153369E-007
   52.9639250000000         8.470141561662156E-008
   53.0769750000000         1.327367237360884E-009
   53.1900250000000        -8.257154581169722E-008
   53.3030750000000        -1.639106385065285E-007
   53.4161250000000        -2.394182117862053E-007
   53.5291750000000        -3.057377728523072E-007
   53.6422250000000        -3.595422746819786E-007
   53.7552750000000        -3.976572823549397E-007
   53.8683250000000        -4.171893975181744E-007
   53.9813750000000        -4.156557787941278E-007
   54.0944250000000        -3.911102135494194E-007
   54.2074750000000        -3.422609456635605E-007
   54.3205250000000        -2.685753632402533E-007
   54.4335750000000        -1.703667160012388E-007
   54.5466250000000        -4.885827395322437E-008
   54.6596750000000         9.377923807038251E-008
   54.7727250000000         2.544204917203301E-007
   54.8857750000000         4.290114787509464E-007
   54.9988250000000         6.126303593185790E-007
   55.1118750000000         7.995840158016142E-007
   55.2249250000000         9.835399120029904E-007
   55.3379750000000         1.157691597953796E-006
   55.4510250000000         1.314954902378474E-006
   55.5640750000000         1.448190559583350E-006
   55.6771250000000         1.550447769984457E-006
   55.7901750000000         1.615222038530031E-006
   55.9032250000000         1.636719622934981E-006
   56.0162750000000         1.610120095498852E-006
   56.1293250000000         1.531827921018185E-006
   56.2423750000000         1.399703616647953E-006
   56.3554250000000         1.213265016109532E-006
   56.4684750000000         9.738494335579187E-007
   56.5815250000000         6.847281251959075E-007
   56.6945750000000         3.511653819351533E-007
   56.8076250000000        -1.958415502016905E-008
   56.9206750000000        -4.183447989168211E-007
   57.0337250000000        -8.341587481737231E-007
   57.1467750000000        -1.254495578477661E-006
   57.2598250000000        -1.665530982600026E-006
   57.3728750000000        -2.052491077495282E-006
   57.4859250000000        -2.400056183321514E-006
   57.5989750000000        -2.692815592718496E-006
   57.7120250000000        -2.915762569052570E-006
   57.8250750000000        -3.054816722532828E-006
   57.9381250000000        -3.097359090562961E-006
   58.0511750000000        -3.032763772030845E-006
   58.1642250000000        -2.852908904050354E-006
   58.2772750000000        -2.552649182536214E-006
   58.3903250000000        -2.130232067359845E-006
   58.5033750000000        -1.587640312269719E-006
   58.6164250000000        -9.308445387677871E-007
   58.7294750000000        -1.699512349590879E-007
   58.8425250000000         6.807662109429947E-007
   58.9555750000000         1.602963071781567E-006
   59.0686250000000         2.574451827855220E-006
   59.1816750000000         3.569566442028657E-006
   59.2947250000000         4.559661141958508E-006
   59.4077750000000         5.513738306048191E-006
   59.5208250000000         6.399195767636007E-006
   59.6338750000000         7.182679595384166E-006
   59.7469250000000         7.831024306477680E-006
   59.8599750000000         8.312258657949218E-006
   59.9730250000000         8.596651770790889E-006
   60.0860750000000         8.657771500039732E-006
   60.1991250000000         8.473524785034799E-006
   60.3121750000000         8.027148300913824E-006
   60.4252250000000         7.308117171093065E-006
   60.5382750000000         6.312939850547711E-006
   60.6513250000000         5.045808593552609E-006
   60.7643750000000         3.519077187640516E-006
   60.8774250000000         1.753540853063577E-006
   60.9904750000000        -2.215026709871533E-007
   61.1035250000000        -2.368426879331203E-006
   61.2165750000000        -4.641695434145645E-006
   61.3296250000000        -6.988530335282092E-006
   61.4426750000000        -9.349826646378404E-006
   61.5557250000000        -1.166130407625557E-005
   61.6687750000000        -1.385487860427213E-005
   61.7818250000000        -1.586023032880571E-005
   61.8948750000000        -1.760653701549985E-005
   62.0079250000000        -1.902433662968124E-005
   62.1209750000000        -2.004747664919219E-005
   62.2340250000000        -2.061510335720624E-005
   62.3470750000000        -2.067364077342885E-005
   62.4601250000000        -2.017870653864601E-005
   62.5731750000000        -1.909691103847866E-005
   62.6862250000000        -1.740748641538018E-005
   62.7992750000000        -1.510369391983707E-005
   62.9123250000000        -1.219396129699248E-005
   63.0253750000000        -8.702706561292830E-006
   63.1384250000000        -4.670810501557531E-006
   63.2514750000000        -1.557074692351553E-007
   63.3645250000000         4.768927717175217E-006
   63.4775750000000         1.001390975659786E-005
   63.5906250000000         1.547569291382335E-005
   63.7036750000000         2.103793404734166E-005
   63.8167250000000         2.657345110128930E-005
   63.9297750000000         3.194654921189459E-005
   64.0428250000000         3.701567660985874E-005
   64.1558750000000         4.163636316586354E-005
   64.2689250000000         4.566438597891607E-005
   64.3819750000000         4.895909908192272E-005
   64.4950250000000         5.138685834338699E-005
   64.6080750000000         5.282446815421214E-005
   64.7211250000000         5.316257363755996E-005
   64.8341750000000         5.230892100481241E-005
   64.9472250000000         5.019140934734996E-005
   65.0602750000000         4.676085960103194E-005
   65.1733250000000         4.199343060348745E-005
   65.2863750000000         3.589261798729203E-005
   65.3994250000000         2.849077897780290E-005
   65.5124750000000         1.985013481662781E-005