 -0.847875000000000        -1.528400701656950E-023
 -0.734825000000000        -1.267638121084302E-023
 -0.621775000000000         6.963414509181965E-023
 -0.508725000000000         6.978521809146198E-022
 -0.395675000000000         3.942635269217249E-021
 -0.282625000000000         1.732469982449181E-020
 -0.169575000000000         6.371500186500704E-020
 -5.652500000000005E-002    2.021093543921469E-019
  5.652499999999994E-002    5.632614769004184E-019
  0.169575000000000         1.399846579858297E-018
  0.282625000000000         3.144970671196847E-018
  0.395675000000000         6.469407357933677E-018
  0.508725000000000         1.232954044686413E-017
  0.621775000000000         2.200301308560039E-017
  0.734825000000000         3.711018536497867E-017
  0.847875000000000         5.962200207154030E-017
  0.960925000000000         9.185026283098775E-017
   1.07397500000000         1.364179827724518E-016
   1.18702500000000         1.962027160438914E-016
   1.30007500000000         2.742506697090422E-016
   1.41312500000000         3.736602541331063E-016
   1.52617500000000         4.974294333923880E-016
   1.63922500000000         6.482776588241593E-016
   1.75227500000000         8.284353191485866E-016
   1.86532500000000         1.039421782557077E-015
   1.97837500000000         1.281806841182898E-015
   2.09142500000000         1.554976053346222E-015
   2.20447500000000         1.856908166401365E-015
   2.31752500000000         2.183987330150553E-015
   2.43057500000000         2.530849057960031E-015
   2.54362500000000         2.890272832121578E-015
   2.65667500000000         3.253162118893817E-015
   2.76972500000000         3.608576606235698E-015
   2.88277500000000         3.943859081109764E-015
   2.99582500000000         4.244834097874561E-015
   3.10887500000000         4.496094013835185E-015
   3.22192500000000         4.681365136780625E-015
   3.33497500000000         4.783929148764542E-015
   3.44802500000000         4.787099016548365E-015
   3.56107500000000         4.674736950962132E-015
   3.67412500000000         4.431775562420917E-015
   3.78717500000000         4.044739366086914E-015
   3.90022500000000         3.502217730847662E-015
   4.01327500000000         2.795316887850943E-015
   4.12632500000000         1.918003155479700E-015
   4.23937500000000         8.673734094850197E-016
   4.35242500000000        -3.561862693886910E-016
   4.46547500000000        -1.748941326430504E-015
   4.57852500000000        -3.303897857490099E-015
   4.69157500000000        -5.010979969418346E-015
   4.80462500000000        -6.857321085874552E-015
   4.91767500000000        -8.827646644298776E-015
   5.03072500000000        -1.090472580950548E-014
   5.14377500000000        -1.306984995979375E-014
   5.25682500000000        -1.530333870664402E-014
   5.36987500000000        -1.758502080640216E-014
   5.48292500000000        -1.989467807975450E-014
   5.59597500000000        -2.221240409243162E-014
   5.70902500000000        -2.451886429558231E-014
   5.82207500000000        -2.679544268160903E-014
   5.93512500000000        -2.902425851337909E-014
   6.04817500000000        -3.118804770973469E-014
   6.16122500000000        -3.326994507360397E-014
   6.27427500000000        -3.525313959054487E-014
   6.38732500000000        -3.712047505951846E-014
   6.50037500000000        -3.885400995841502E-014
   6.61342500000000        -4.043456597836660E-014
   6.72647500000000        -4.184133615825563E-014
   6.83952500000000        -4.305162166203233E-014
   6.95257500000000        -4.404068089609600E-014
   7.06562500000000        -4.478178203344165E-014
   7.17867500000000        -4.524647337131678E-014
   7.29172500000000        -4.540512000197733E-014
   7.40477500000000        -4.522769239898635E-014
   7.51782500000000        -4.468482446819222E-014
   7.63087500000000        -4.374908929784754E-014
   7.74392500000000        -4.239649230117493E-014
   7.85697500000000        -4.060808829923226E-014
   7.97002500000000        -3.837168431977411E-014
   8.08307500000000        -3.568354362131982E-014
   8.19612500000000        -3.254996067379187E-014
   8.30917500000000        -2.898868055881126E-014
   8.42222500000000        -2.503000482772684E-014
   8.53527500000000        -2.071753271047227E-014
   8.64832500000000        -1.610845867344008E-014
   8.76137500000000        -1.127335836817542E-014
   8.87442500000000        -6.295435207280922E-015
   8.98747500000000        -1.269223351645444E-015
   9.10052500000000         3.701284751264560E-015
   9.21357500000000         8.504959072248620E-015
   9.32662500000000         1.302631036063038E-014
   9.43967500000000         1.714858396579337E-014
   9.55272500000000         2.075707163568183E-014
   9.66577500000000         2.374250371762895E-014
   9.77882500000000         2.600434542207410E-014
   9.89187500000000         2.745392236924585E-014
   10.0049250000000         2.801715866627949E-014
   10.1179750000000         2.763683908686602E-014
   10.2310250000000         2.627428605985611E-014
   10.3440750000000         2.391033907357113E-014
   10.4571250000000         2.054563298632877E-014
   10.5701750000000         1.620010969534986E-014
   10.6832250000000         1.091185057484825E-014
   10.7962750000000         4.735215402884451E-015
   10.9093250000000        -2.261558966804504E-015
   11.0223750000000        -9.999173340617156E-015
   11.1354250000000        -1.839040666038491E-014
   11.2484750000000        -2.734334557083244E-014
   11.3615250000000        -3.676453947550799E-014
   11.4745750000000        -4.656199044399557E-014
   11.5876250000000        -5.664771041391657E-014
   11.7006750000000        -6.693980126588811E-014
   11.8137250000000        -7.736390325311038E-014
   11.9267750000000        -8.785400983159114E-014
   12.0398250000000        -9.835253107219825E-014
   12.1528750000000        -1.088097418360188E-013
   12.2659250000000        -1.191825994725112E-013
   12.3789750000000        -1.294330757396229E-013
   12.4920250000000        -1.395261358324028E-013
   12.6050750000000        -1.494275233752812E-013
   12.7181250000000        -1.591015529579750E-013
   12.8311750000000        -1.685090900908953E-013
   12.9442250000000        -1.776058929126925E-013
   13.0572750000000        -1.863415060001403E-013
   13.1703250000000        -1.946587836953940E-013
   13.2833750000000        -2.024941909690870E-013
   13.3964250000000        -2.097789151863557E-013
   13.5094750000000        -2.164407502673420E-013
   13.6225250000000        -2.224067564598337E-013
   13.7355750000000        -2.276065302897859E-013
   13.8486250000000        -2.319759575736233E-013
   13.9616750000000        -2.354612468904397E-013
   14.0747250000000        -2.380230449066825E-013
   14.1877750000000        -2.396403455682784E-013
   14.3008250000000        -2.403140300949041E-013
   14.4138750000000        -2.400697060569055E-013
   14.5269250000000        -2.389597655703053E-013
   14.6399750000000        -2.370643987778495E-013
   14.7530250000000        -2.344915255784368E-013
   14.8660750000000        -2.313755373167172E-013
   14.9791250000000        -2.278748569214478E-013
   15.0921750000000        -2.241684243820420E-013
   15.2052250000000        -2.204512101681852E-013
   15.3182750000000        -2.169289480681472E-013
   15.4313250000000        -2.138123120315654E-013
   15.5443750000000        -2.113108004888242E-013
   15.6574250000000        -2.096265858277075E-013
   15.7704750000000        -2.089486746674407E-013
   15.8835250000000        -2.094475786667443E-013
   15.9965750000000        -2.112707652715317E-013
   16.1096250000000        -2.145391069965961E-013
   16.2226750000000        -2.193444444904826E-013
   16.3357250000000        -2.257483827195620E-013
   16.4487750000000        -2.337823027562782E-013
   16.5618250000000        -2.434485930031609E-013
   16.6748750000000        -2.547229518486354E-013
   16.7879250000000        -2.675576098997343E-013
   16.9009750000000        -2.818852658009797E-013
   17.0140250000000        -2.976235148531519E-013
   17.1270750000000        -3.146794764002246E-013
   17.2401250000000        -3.329543578365508E-013
   17.3531750000000        -3.523477364346522E-013
   17.4662250000000        -3.727612912698836E-013
   17.5792750000000        -3.941018704958512E-013
   17.6923250000000        -4.162836881206493E-013
   17.8053750000000        -4.392296204175631E-013
   17.9184250000000        -4.628715884495443E-013
   18.0314750000000        -4.871500616997259E-013
   18.1445250000000        -5.120127860752295E-013
   18.2575750000000        -5.374128943503573E-013
   18.3706250000000        -5.633065840708134E-013
   18.4836750000000        -5.896505769881267E-013
   18.5967250000000        -6.163995792825569E-013
   18.7097750000000        -6.435039726473241E-013
   18.8228250000000        -6.709078914117650E-013
   18.9358750000000        -6.985479370009740E-013
   19.0489250000000        -7.263525480472961E-013
   19.1619750000000        -7.542421886168015E-013
   19.2750250000000        -7.821303355793406E-013
   19.3880750000000        -8.099252212014895E-013
   19.5011250000000        -8.375322720004306E-013
   19.6141750000000        -8.648570794751727E-013
   19.7272250000000        -8.918087728180880E-013
   19.8402750000000        -9.183035315077238E-013
   19.9533250000000        -9.442681101409444E-013
   20.0663750000000        -9.696430975756894E-013
   20.1794250000000        -9.943857613088439E-013
   20.2924750000000        -1.018472287857598E-012
   20.4055250000000        -1.041899279867645E-012
   20.5185750000000        -1.064684462068415E-012
   20.6316250000000        -1.086866530026235E-012
   20.7446750000000        -1.108504136956874E-012
   20.8577250000000        -1.129674142751159E-012
   20.9707750000000        -1.150469149898046E-012
   21.0838250000000        -1.170994559524974E-012
   21.1968750000000        -1.191365220247664E-012
   21.3099250000000        -1.211701943855728E-012
   21.4229750000000        -1.232128013018960E-012
   21.5360250000000        -1.252765895852580E-012
   21.6490750000000        -1.273734300047366E-012
   21.7621250000000        -1.295145714898219E-012
   21.8751750000000        -1.317104517514299E-012
   21.9882250000000        -1.339705707846371E-012
   22.1012750000000        -1.363034280919682E-012
   22.2143250000000        -1.387165190717918E-012
   22.3273750000000        -1.412163855955250E-012
   22.4404250000000        -1.438087086004184E-012
   22.5534750000000        -1.464984323347074E-012
   22.6665250000000        -1.492899057448877E-012
   22.7795750000000        -1.521870286877625E-012
   22.8926250000000        -1.551933862686674E-012
   23.0056750000000        -1.583123664162365E-012
   23.1187250000000        -1.615472462355563E-012
   23.2317750000000        -1.649012435459199E-012
   23.3448250000000        -1.683775315322222E-012
   23.4578750000000        -1.719792146713206E-012
   23.5709250000000        -1.757092748232276E-012
   23.6839750000000        -1.795704870939991E-012
   23.7970250000000        -1.835653177449477E-012
   23.9100750000000        -1.876958152436872E-012
   24.0231250000000        -1.919634998123395E-012
   24.1361750000000        -1.963692645873132E-012
   24.2492250000000        -2.009132914437278E-012
   24.3622750000000        -2.055949937219135E-012
   24.4753250000000        -2.104129853931306E-012
   24.5883750000000        -2.153650751714154E-012
   24.7014250000000        -2.204482893160809E-012
   24.8144750000000        -2.256589119523543E-012
   24.9275250000000        -2.309925409484892E-012
   25.0405750000000        -2.364441487459358E-012
   25.1536250000000        -2.420081390183018E-012
   25.2666750000000        -2.476783922939048E-012
   25.3797250000000        -2.534482935378612E-012
   25.4927750000000        -2.593107369922452E-012
   25.6058250000000        -2.652581075894131E-012
   25.7188750000000        -2.712822372631156E-012
   25.8319250000000        -2.773743460081242E-012
   25.9449750000000        -2.835249758680321E-012
   26.0580250000000        -2.897239271708084E-012
   26.1710750000000        -2.959602173396874E-012
   26.2841250000000        -3.022220740279898E-012
   26.3971750000000        -3.084969857501308E-012
   26.5102250000000        -3.147718176979286E-012
   26.6232750000000        -3.210330110639306E-012
   26.7363250000000        -3.272668751478783E-012
   26.8493750000000        -3.334599727271503E-012
   26.9624250000000        -3.395995993221812E-012
   27.0754750000000        -3.456743442031892E-012
   27.1885250000000        -3.516747160305040E-012
   27.3015750000000        -3.575938040067810E-012
   27.4146250000000        -3.634279525296505E-012
   27.5276750000000        -3.691774003868605E-012
   27.6407250000000        -3.748468498604689E-012
   27.7537750000000        -3.804459204697185E-012
   27.8668250000000        -3.859894440405927E-012
   27.9798750000000        -3.914975636894061E-012
   28.0929250000000        -3.969956010434101E-012
   28.2059750000000        -4.025136674325718E-012
   28.3190250000000        -4.080860054472763E-012
   28.4320750000000        -4.137500602140311E-012
   28.5451250000000        -4.195452944127787E-012
   28.6581750000000        -4.255117762966769E-012
   28.7712250000000        -4.316885847795370E-012
   28.8842750000000        -4.381120930818992E-012
   28.9973250000000        -4.448142014998770E-012
   29.1103750000000        -4.518206026920406E-012
   29.2234250000000        -4.591491727602605E-012
   29.3364750000000        -4.668085756770058E-012
   29.4495250000000        -4.747971801690367E-012
   29.5625750000000        -4.831023720720147E-012
   29.6756250000000        -4.917003404787677E-012
   29.7886750000000        -5.005563924201994E-012
   29.9017250000000        -5.096258410071387E-012
   30.0147750000000        -5.188554800062596E-012
   30.1278250000000        -5.281856319986431E-012
   30.2408750000000        -5.375527325431953E-012
   30.3539250000000        -5.468923751648657E-012
   30.4669750000000        -5.561427179560278E-012
   30.5800250000000        -5.652481244277244E-012
   30.6930750000000        -5.741628886900397E-012
   30.8061250000000        -5.828548702136102E-012
   30.9191750000000        -5.913088582737296E-012
   31.0322250000000        -5.995294775276333E-012
   31.1452750000000        -6.075434448669079E-012
   31.2583250000000        -6.154010111068850E-012
   31.3713750000000        -6.231764276296347E-012
   31.4844250000000        -6.309673180377571E-012
   31.5974750000000        -6.388928674762493E-012
   31.7105250000000        -6.470907922602090E-012
   31.8235750000000        -6.557130962507646E-012
   31.9366250000000        -6.649206837668884E-012
   32.0496750000000        -6.748769532415216E-012
   32.1627250000000        -6.857405463767408E-012
   32.2757750000000        -6.976574947320238E-012
   32.3888250000000        -7.107530436325125E-012
   32.5018750000000        -7.251234789963257E-012
   32.6149250000000        -7.408283143678814E-012
   32.7279750000000        -7.578832090612120E-012
   32.8410250000000        -7.762539956282666E-012
   32.9540750000000        -7.958521824769565E-012
   33.0671250000000        -8.165322682305751E-012
   33.1801750000000        -8.380911575016755E-012
   33.2932250000000        -8.602699087310804E-012
   33.4062750000000        -8.827579708697435E-012
   33.5193250000000        -9.051999672403975E-012
   33.6323750000000        -9.272050011136628E-012
   33.7454250000000        -9.483583339096354E-012
   33.8584750000000        -9.682351954613491E-012
   33.9715250000000        -9.864163661296245E-012
   34.0845750000000        -1.002505071785602E-011
   34.1976250000000        -1.016144646921990E-011
   34.3106750000000        -1.027036339900086E-011
   34.4237250000000        -1.034956578881493E-011
   34.5367750000000        -1.039772981050787E-011
   34.6498250000000        -1.041458384480870E-011
   34.7628750000000        -1.040102195300847E-011
   34.8759250000000        -1.035918396251752E-011
   34.9889750000000        -1.029249638223416E-011
   35.1020250000000        -1.020566943091754E-011
   35.2150750000000        -1.010464678394198E-011
   35.3281250000000        -9.996506135357870E-012
   35.4411750000000        -9.889310403146817E-012
   35.5542250000000        -9.791911229798778E-012
   35.6672750000000        -9.713708315118158E-012
   35.7803250000000        -9.664369888457612E-012
   35.8933750000000        -9.653521510235677E-012
   36.0064250000000        -9.690411904645651E-012
   36.1194750000000        -9.783565927150730E-012
   36.2325250000000        -9.940435865557902E-012
   36.3455750000000        -1.016706293126981E-011
   36.4586250000000        -1.046776121130127E-011
   36.5716750000000        -1.084483623731879E-011
   36.6847250000000        -1.129834976023937E-011
   36.7977750000000        -1.182594143493711E-011
   36.9108250000000        -1.242271670777599E-011
   37.0238750000000        -1.308120851677849E-011
   37.1369250000000        -1.379141826435051E-011
   37.2499750000000        -1.454093930693765E-011
   37.3630250000000        -1.531516364103194E-011
   37.4760750000000        -1.609756992469322E-011
   37.5891250000000        -1.687008828235153E-011
   37.7021750000000        -1.761353493883927E-011
   37.8152250000000        -1.830810731553759E-011
   37.9282750000000        -1.893392811794983E-011
   38.0413250000000        -1.947162518430613E-011
   38.1543750000000        -1.990293244218362E-011
   38.2674250000000        -2.021129634125700E-011
   38.3804750000000        -2.038247154157467E-011
   38.4935250000000        -2.040508956142458E-011
   38.6065750000000        -2.027118434501595E-011
   38.7196250000000        -1.997665947180228E-011
   38.8326750000000        -1.952168277786242E-011
   38.9457250000000        -1.891099554505890E-011
   39.0587750000000        -1.815412497234252E-011
   39.1718250000000        -1.726549057443842E-011
   39.2848750000000        -1.626439694173690E-011
   39.3979250000000        -1.517490733411608E-011
   39.5109750000000        -1.402559459037250E-011
   39.6240250000000        -1.284916779401741E-011
   39.7370750000000        -1.168197509239050E-011
   39.8501250000000        -1.056338492159566E-011
   39.9631750000000        -9.535049858898669E-012
   40.0762250000000        -8.640059137987569E-012
   40.1892750000000        -7.921987822836099E-012
   40.3023250000000        -7.423852691996648E-012
   40.4153750000000        -7.186987071507246E-012
   40.5284250000000        -7.249849265449673E-012
   40.6414750000000        -7.646781882661526E-012
   40.7545250000000        -8.406742291553815E-012
   40.8675750000000        -9.552027669176733E-012
   40.9806250000000        -1.109702144997772E-011
   41.0936750000000        -1.304699165887417E-011
   41.2067250000000        -1.539697520835181E-011
   41.3197750000000        -1.813078566870881E-011
   41.4328250000000        -2.122018529815167E-011
   41.5458750000000        -2.462426468001936E-011
   41.6589250000000        -2.828907502048994E-011
   41.7719750000000        -3.214755882074631E-011
   41.8850250000000        -3.611982374986165E-011
   41.9980750000000        -4.011380191071227E-011
   42.1111250000000        -4.402633206822043E-011
   42.2241750000000        -4.774469542235045E-011
   42.3372250000000        -5.114862612708525E-011
   42.4502750000000        -5.411280586412753E-011
   42.5633250000000        -5.650983733513344E-011
   42.6763750000000        -5.821367470745882E-011
   42.7894250000000        -5.910347023583972E-011
   42.9024750000000        -5.906777563533517E-011
   43.0155250000000        -5.800901516566668E-011
   43.1285750000000        -5.584812531005324E-011
   43.2416250000000        -5.252923431699424E-011
   43.3546750000000        -4.802423461390099E-011
   43.4677250000000        -4.233708332824156E-011
   43.5807750000000        -3.550765180219614E-011
   43.6938250000000        -2.761493536083581E-011
   43.8068750000000        -1.877943050533316E-011
   43.9199250000000        -9.164489328359520E-012
   44.0329750000000         1.023528987651747E-012
   44.1460250000000         1.153647158963865E-011
   44.2590750000000         2.208710567131014E-011
   44.3721250000000         3.235343271197278E-011
   44.4851750000000         4.198465989008483E-011
   44.5982250000000         5.060883430538106E-011
   44.7112750000000         5.784208763013653E-011
   44.8243250000000         6.329937566256398E-011
   44.9373750000000         6.660653062044490E-011
   45.0504250000000         6.741337573780157E-011
   45.1634750000000         6.540758471870404E-011
   45.2765250000000         6.032890497170516E-011
   45.3895750000000         5.198330655070393E-011
   45.5026250000000         4.025657094068680E-011
   45.6156750000000         2.512679831640071E-011
   45.7287250000000         6.675290998330203E-012
   45.8417750000000        -1.490473269116962E-011
   45.9548250000000        -3.930212440059887E-011
   46.0678750000000        -6.608498571090442E-011
   46.1809250000000        -9.470147854066391E-011
   46.2939750000000        -1.244846234972623E-010
   46.4070250000000        -1.546613436798253E-010
   46.5200750000000        -1.843658924219266E-010
   46.6331250000000        -2.126576674905512E-010
   46.7461750000000        -2.385432647898891E-010
   46.8592250000000        -2.610024657944855E-010
   46.9722750000000        -2.790176892913096E-010
   47.0853250000000        -2.916062754271190E-010
   47.1983750000000        -2.978548138034261E-010
   47.3114250000000        -2.969545842359841E-010
   47.4244750000000        -2.882370544702981E-010
   47.5375250000000        -2.712082800461165E-010
   47.6505750000000        -2.455809830761803E-010
   47.7636250000000        -2.113030541090190E-010
   47.8766750000000        -1.685812286101464E-010
   47.9897250000000        -1.178987399131014E-010
   48.1027750000000        -6.002584564747560E-011
   48.2158250000000         3.977735074036049E-012
   48.3288750000000         7.276925231618240E-011
   48.4419250000000         1.447387772889719E-010
   48.5549750000000         2.180347676120892E-010
   48.6680250000000         2.905993459309817E-010
   48.7810750000000         3.602129775066120E-010
   48.8941250000000         4.245479043724359E-010
   49.0071750000000         4.812293619173992E-010
   49.1202250000000         5.279032794739561E-010
   49.2332750000000         5.623088610130358E-010
   49.3463250000000         5.823541667577416E-010
   49.4593750000000         5.861925825459347E-010
   49.5724250000000         5.722978821655368E-010
   49.6854750000000         5.395354672055263E-010
   49.7985250000000         4.872273179014144E-010
   49.9115750000000         4.152082126394427E-010
   50.0246250000000         3.238708770963641E-010
   50.1376750000000         2.141979081107210E-010
   50.2507250000000         8.777858087686550E-011
   50.3637750000000        -5.319101267959743E-011
   50.4768250000000        -2.059256384509161E-010
   50.5898750000000        -3.670870834692747E-010
   50.7029250000000        -5.328389677793911E-010
   50.8159750000000        -6.989198138103846E-010
   50.9290250000000        -8.607334128022354E-010
   51.0420750000000        -1.013454956440666E-009
   51.1551250000000        -1.152150846160960E-009
   51.2681750000000        -1.271909571003780E-009
   51.3812250000000        -1.367980574630740E-009
   51.4942750000000        -1.435917630351926E-009
   51.6073250000000        -1.471722924700990E-009
   51.7203750000000        -1.471987828712780E-009
   51.8334250000000        -1.434026221981275E-009
   51.9464750000000        -1.355996235618358E-009
   52.0595250000000        -1.237006400562178E-009
   52.1725750000000        -1.077202428150663E-009
   52.2856250000000        -8.778312073884075E-010
   52.3986750000000        -6.412790712944948E-010
   52.5117250000000        -3.710819530762022E-010
   52.6247750000000        -7.190570807492520E-011
   52.7378250000000         2.505043969147131E-010
   52.8508750000000         5.894052477979369E-010
   52.9639250000000         9.371679130882958E-010
   53.0769750000000         1.285418733664662E-009
   53.1900250000000         1.625207261469103E-009
   53.3030750000000         1.947198066386220E-009
   53.4161250000000         2.241882716722475E-009
   53.5291750000000         2.499807601370280E-009
   53.6422250000000         2.711812717672523E-009
   53.7552750000000         2.869276113818879E-009
   53.8683250000000         2.964358359209542E-009
   53.9813750000000         2.990241229698641E-009
   54.0944250000000         2.941354741349894E-009
   54.2074750000000         2.813586747174816E-009
   54.3205250000000         2.604469524191761E-009
   54.4335750000000         2.313338116958785E-009
   54.5466250000000         1.941455659641645E-009
   54.6596750000000         1.492101460415575E-009
   54.7727250000000         9.706182859906737E-010
   54.8857750000000         3.844160154745213E-010
   54.9988250000000        -2.570703740517575E-010
   55.1118750000000        -9.424696892152068E-010
   55.2249250000000        -1.658610599593383E-009
   55.3379750000000        -2.390704361216036E-009
   55.4510250000000        -3.122572746220998E-009
   55.5640750000000        -3.836918866556948E-009
   55.6771250000000        -4.515637727247630E-009
   55.7901750000000        -5.140162522429723E-009
   55.9032250000000        -5.691841902585002E-009
   56.0162750000000        -6.152342699735188E-009
   56.1293250000000        -6.504071903590266E-009
   56.2423750000000        -6.730611040058416E-009
   56.3554250000000        -6.817155518048614E-009
   56.4684750000000        -6.750950986156058E-009
   56.5815250000000        -6.521718283076464E-009
   56.6945750000000        -6.122058182236308E-009
   56.8076250000000        -5.547826831550044E-009
   56.9206750000000        -4.798472585579886E-009
   57.0337250000000        -3.877324834334990E-009
   57.1467750000000        -2.791825467581320E-009
   57.2598250000000        -1.553693795643151E-009
   57.3728750000000        -1.790160984333875E-010
   57.4859250000000         1.311748483818680E-009
   57.5989750000000         2.893853249156149E-009
   57.7120250000000         4.538446962636414E-009
   57.8250750000000         6.212859912147958E-009
   57.9381250000000         7.880996776055600E-009
   58.0511750000000         9.503838298387039E-009
   58.1642250000000         1.104005169946032E-008
   58.2772750000000         1.244670741147036E-008
   58.3903250000000         1.368009713721732E-008
   58.5033750000000         1.469664541602570E-008
   58.6164250000000         1.545390388627086E-008
   58.7294750000000         1.591161431439790E-008
   58.8425250000000         1.603282328464045E-008
   58.9555750000000         1.578502829323031E-008
   59.0686250000000         1.514133195883011E-008
   59.1816750000000         1.408157824991795E-008
   59.2947250000000         1.259344215066358E-008
   59.4077750000000         1.067344215460882E-008
   59.5208250000000         8.327843506733867E-009
   59.6338750000000         5.573419323292348E-009
   59.7469250000000         2.438036712415085E-009
   59.8599750000000        -1.038964107711270E-009
   59.9730250000000        -4.806627862049835E-009
   60.0860750000000        -8.802506758666178E-009
   60.1991250000000        -1.295307092334918E-008
   60.3121750000000        -1.717442517008542E-008
   60.4252250000000        -2.137334454918205E-008
   60.5382750000000        -2.544863414408228E-008
   60.6513250000000        -2.929281074379311E-008
   60.7643750000000        -3.279409543471730E-008
   60.8774250000000        -3.583869700481897E-008
   60.9904750000000        -3.831335653991086E-008
   61.1035250000000        -4.010811395283048E-008
   61.2165750000000        -4.111924768480850E-008
   61.3296250000000        -4.125232973851604E-008
   61.4426750000000        -4.042532984195492E-008
   61.5557250000000        -3.857169520497986E-008
   61.6687750000000        -3.564332631644622E-008
   61.7818250000000        -3.161336482722665E-008
   61.8948750000000        -2.647870703759241E-008
   62.0079250000000        -2.026215608892924E-008
   62.1209750000000        -1.301412783930712E-008
   62.2340250000000        -4.813829718468679E-009
   62.3470750000000         4.230161311514240E-009
   62.4601250000000         1.397998620570571E-008
   62.5731750000000         2.426930938747308E-008
   62.6862250000000         3.490488093687507E-008
   62.7992750000000         4.566887767737353E-008
   62.9123250000000         5.632202731651358E-008
   63.0253750000000         6.660750022140454E-008
   63.1384250000000         7.625553279294194E-008
   63.2514750000000         8.498872523072441E-008
   63.3645250000000         9.252793528812093E-008
   63.4775750000000         9.859866897478748E-008
   63.5906250000000         1.029378496637954E-007
   63.7036750000000         1.053008293001591E-007
   63.8167250000000         1.054684899722493E-007
   63.9297750000000         1.032542715545571E-007
   64.0428250000000         9.851095196898190E-008
   64.1558750000000         9.113700128812159E-008
   64.2689250000000         8.108232978332188E-008
   64.3819750000000         6.835325337254234E-008
   64.4950250000000         5.301650791136121E-008
   64.6080750000000         3.520215643889128E-008
   64.7211250000000         1.510525075939116E-008
   64.8341750000000        -7.013869599146049E-009
   64.9472250000000        -3.083073229321738E-008
   65.0602750000000        -5.595940287575011E-008
   65.1733250000000        -8.195670092950777E-008
   65.2863750000000        -1.083279565942329E-007
   65.3994250000000        -1.345342662648500E-007
   65.5124750000000        -1.600011693441600E-007