 -0.847875000000000         1.315251266061402E-020
 -0.734825000000000         5.348534736706569E-019
 -0.621775000000000         4.602953538077587E-018
 -0.508725000000000         2.548278244753936E-017
 -0.395675000000000         1.108423000225173E-016
 -0.282625000000000         4.038678697208345E-016
 -0.169575000000000         1.267721621286130E-015
 -5.652500000000005E-002    3.489647281900048E-015
  5.652499999999994E-002    8.550933957826708E-015
  0.169575000000000         1.891827891787565E-014
  0.282625000000000         3.831168709070177E-014
  0.395675000000000         7.193903359125132E-014
  0.508725000000000         1.267224902095953E-013
  0.621775000000000         2.115396472621500E-013
  0.734825000000000         3.374793919525301E-013
  0.847875000000000         5.180711328207952E-013
  0.960925000000000         7.694493921151523E-013
   1.07397500000000         1.110429601237720E-012
   1.18702500000000         1.562460582964147E-012
   1.30007500000000         2.149440001045501E-012
   1.41312500000000         2.897394709501578E-012
   1.52617500000000         3.834039700930081E-012
   1.63922500000000         4.988212938368561E-012
   1.75227500000000         6.389166835150012E-012
   1.86532500000000         8.065785868123262E-012
   1.97837500000000         1.004572891957946E-011
   2.09142500000000         1.235450116135940E-011
   2.20447500000000         1.501450733912103E-011
   2.31752500000000         1.804416666667497E-011
   2.43057500000000         2.145702244530072E-011
   2.54362500000000         2.526087988927307E-011
   2.65667500000000         2.945730146912202E-011
   2.76972500000000         3.404100401609518E-011
   2.88277500000000         3.899954794409036E-011
   2.99582500000000         4.431331862304845E-011
   3.10887500000000         4.995566341516610E-011
   3.22192500000000         5.589314115284163E-011
   3.33497500000000         6.208628348192928E-011
   3.44802500000000         6.849047203078384E-011
   3.56107500000000         7.505690039211348E-011
   3.67412500000000         8.173391891476313E-011
   3.78717500000000         8.846846545682101E-011
   3.90022500000000         9.520752753917336E-011
   4.01327500000000         1.018996095634154E-010
   4.12632500000000         1.084964229184231E-010
   4.23937500000000         1.149542751631797E-010
   4.35242500000000         1.212353907450623E-010
   4.46547500000000         1.273090666888306E-010
   4.57852500000000         1.331526480223063E-010
   4.69157500000000         1.387522402062873E-010
   4.80462500000000         1.441028535861988E-010
   4.91767500000000         1.492083922111102E-010
   5.03072500000000         1.540816391943368E-010
   5.14377500000000         1.587435840106825E-010
   5.25682500000000         1.632223595911160E-010
   5.36987500000000         1.675521526720923E-010
   5.48292500000000         1.717718910276318E-010
   5.59597500000000         1.759236931360882E-010
   5.70902500000000         1.800512699895030E-010
   5.82207500000000         1.841982977563904E-010
   5.93512500000000         1.884068753137921E-010
   6.04817500000000         1.927160987118285E-010
   6.16122500000000         1.971607506337060E-010
   6.27427500000000         2.017703195631871E-010
   6.38732500000000         2.065682825179756E-010
   6.50037500000000         2.115716167092619E-010
   6.61342500000000         2.167907964504712E-010
   6.72647500000000         2.222299821037416E-010
   6.83952500000000         2.278874966853966E-010
   6.95257500000000         2.337567820555488E-010
   7.06562500000000         2.398273923067901E-010
   7.17867500000000         2.460861873957511E-010
   7.29172500000000         2.525188396946768E-010
   7.40477500000000         2.591112715344844E-010
   7.51782500000000         2.658509732516305E-010
   7.63087500000000         2.727284212828569E-010
   7.74392500000000         2.797382822373573E-010
   7.85697500000000         2.868802419772806E-010
   7.97002500000000         2.941598841648893E-010
   8.08307500000000         3.015890515094210E-010
   8.19612500000000         3.091859000280186E-010
   8.30917500000000         3.169747533988481E-010
   8.42222500000000         3.249855682849834E-010
   8.53527500000000         3.332530377073371E-010
   8.64832500000000         3.418155108807954E-010
   8.76137500000000         3.507137800789582E-010
   8.87442500000000         3.599895871436162E-010
   8.98747500000000         3.696841223427213E-010
   9.10052500000000         3.798364852385872E-010
   9.21357500000000         3.904822584189547E-010
   9.32662500000000         4.016521153292410E-010
   9.43967500000000         4.133705875619058E-010
   9.55272500000000         4.256551042698485E-010
   9.66577500000000         4.385153445342493E-010
   9.77882500000000         4.519526324345028E-010
   9.89187500000000         4.659600184294244E-010
   10.0049250000000         4.805224078633765E-010
   10.1179750000000         4.956167942598002E-010
   10.2310250000000         5.112130869092246E-010
   10.3440750000000         5.272749799110289E-010
   10.4571250000000         5.437610024252011E-010
   10.5701750000000         5.606255945175047E-010
   10.6832250000000         5.778205238661196E-010
   10.7962750000000         5.952960162967044E-010
   10.9093250000000         6.130018877661481E-010
   11.0223750000000         6.308887232616964E-010
   11.1354250000000         6.489088296552743E-010
   11.2484750000000         6.670171513600487E-010
   11.3615250000000         6.851718683364394E-010
   11.4745750000000         7.033349168806616E-010
   11.5876250000000         7.214724291834869E-010
   11.7006750000000         7.395548022283239E-010
   11.8137250000000         7.575568310087284E-010
   11.9267750000000         7.754576362618316E-010
   12.0398250000000         7.932406282707648E-010
   12.1528750000000         8.108933152334408E-010
   12.2659250000000         8.284071223043934E-010
   12.3789750000000         8.457773597017023E-010
   12.4920250000000         8.630031225796772E-010
   12.6050750000000         8.800873504342537E-010
   12.7181250000000         8.970367754132417E-010
   12.8311750000000         9.138621496376038E-010
   12.9442250000000         9.305784703644901E-010
   13.0572750000000         9.472052009224877E-010
   13.1703250000000         9.637664973116800E-010
   13.2833750000000         9.802914651220676E-010
   13.3964250000000         9.968143254569324E-010
   13.5094750000000         1.013374507369511E-009
   13.6225250000000         1.030016586144109E-009
   13.7355750000000         1.046790055094451E-009
   13.8486250000000         1.063748914000520E-009
   13.9616750000000         1.080950943371325E-009
   14.0747250000000         1.098456886549149E-009
   14.1877750000000         1.116329563913087E-009
   14.3008250000000         1.134632395961962E-009
   14.4138750000000         1.153428005847242E-009
   14.5269250000000         1.172776773198867E-009
   14.6399750000000         1.192735119363071E-009
   14.7530250000000         1.213353999207604E-009
   14.8660750000000         1.234677416976788E-009
   14.9791250000000         1.256740788141975E-009
   15.0921750000000         1.279569813383255E-009
   15.2052250000000         1.303179580277923E-009
   15.3182750000000         1.327573838771470E-009
   15.4313250000000         1.352744720198856E-009
   15.5443750000000         1.378672788286455E-009
   15.6574250000000         1.405327520385090E-009
   15.7704750000000         1.432668268151345E-009
   15.8835250000000         1.460645351809530E-009
   15.9965750000000         1.489201635660117E-009
   16.1096250000000         1.518274387644042E-009
   16.2226750000000         1.547797112093414E-009
   16.3357250000000         1.577701904833265E-009
   16.4487750000000         1.607921631613551E-009
   16.5618250000000         1.638391902513459E-009
   16.6748750000000         1.669053021286254E-009
   16.7879250000000         1.699851790654165E-009
   16.9009750000000         1.730742945247094E-009
   17.0140250000000         1.761690305504064E-009
   17.1270750000000         1.792667426102372E-009
   17.2401250000000         1.823657919464027E-009
   17.3531750000000         1.854655275180775E-009
   17.4662250000000         1.885662326150392E-009
   17.5792750000000         1.916690339826503E-009
   17.6923250000000         1.947757740149019E-009
   17.8053750000000         1.978888710246309E-009
   17.9184250000000         2.010111506513514E-009
   18.0314750000000         2.041456659109742E-009
   18.1445250000000         2.072955362377438E-009
   18.2575750000000         2.104637702916615E-009
   18.3706250000000         2.136531212188754E-009
   18.4836750000000         2.168659701720832E-009
   18.5967250000000         2.201042253249397E-009
   18.7097750000000         2.233692760146136E-009
   18.8228250000000         2.266619652748482E-009
   18.9358750000000         2.299826018914071E-009
   19.0489250000000         2.333310198337037E-009
   19.1619750000000         2.367066480987137E-009
   19.2750250000000         2.401086316279784E-009
   19.3880750000000         2.435359636360078E-009
   19.5011250000000         2.469876153590392E-009
   19.6141750000000         2.504626893147558E-009
   19.7272250000000         2.539605577037299E-009
   19.8402750000000         2.574809853191058E-009
   19.9533250000000         2.610242436576941E-009
   20.0663750000000         2.645911920444572E-009
   20.1794250000000         2.681833267474143E-009
   20.2924750000000         2.718027949953621E-009
   20.4055250000000         2.754523642811749E-009
   20.5185750000000         2.791353888921032E-009
   20.6316250000000         2.828557115377028E-009
   20.7446750000000         2.866175446144453E-009
   20.8577250000000         2.904253421026708E-009
   20.9707750000000         2.942836369374481E-009
   21.0838250000000         2.981968904855839E-009
   21.1968750000000         3.021693314522699E-009
   21.3099250000000         3.062047991519071E-009
   21.4229750000000         3.103066191173908E-009
   21.5360250000000         3.144774911024386E-009
   21.6490750000000         3.187194117624711E-009
   21.7621250000000         3.230336301720945E-009
   21.8751750000000         3.274206269171975E-009
   21.9882250000000         3.318801447562667E-009
   22.1012750000000         3.364112490140118E-009
   22.2143250000000         3.410124126764448E-009
   22.3273750000000         3.456816383060307E-009
   22.4404250000000         3.504165933955440E-009
   22.5534750000000         3.552147591324291E-009
   22.6665250000000         3.600735826809656E-009
   22.7795750000000         3.649906412287316E-009
   22.8926250000000         3.699637833603656E-009
   23.0056750000000         3.749912494091301E-009
   23.1187250000000         3.800717850258937E-009
   23.2317750000000         3.852047213365540E-009
   23.3448250000000         3.903900175824524E-009
   23.4578750000000         3.956282814624205E-009
   23.5709250000000         4.009207552671715E-009
   23.6839750000000         4.062692673225580E-009
   23.7970250000000         4.116761642411343E-009
   23.9100750000000         4.171442051475182E-009
   24.0231250000000         4.226764581062925E-009
   24.1361750000000         4.282761717754497E-009
   24.2492250000000         4.339466449155857E-009
   24.3622750000000         4.396910992241714E-009
   24.4753250000000         4.455125544989178E-009
   24.5883750000000         4.514137224520403E-009
   24.7014250000000         4.573969220258271E-009
   24.8144750000000         4.634640094822474E-009
   24.9275250000000         4.696163292794427E-009
   25.0405750000000         4.758546898494538E-009
   25.1536250000000         4.821793691035866E-009
   25.2666750000000         4.885901499317363E-009
   25.3797250000000         4.950863577377377E-009
   25.4927750000000         5.016669275253383E-009
   25.6058250000000         5.083304840451575E-009
   25.7188750000000         5.150754257170289E-009
   25.8319250000000         5.219000166358499E-009
   25.9449750000000         5.288024785362974E-009
   26.0580250000000         5.357810750146091E-009
   26.1710750000000         5.428341950349069E-009
   26.2841250000000         5.499604263202079E-009
   26.3971750000000         5.571586055033368E-009
   26.5102250000000         5.644278635573458E-009
   26.6232750000000         5.717676636587742E-009
   26.7363250000000         5.791778110616094E-009
   26.8493750000000         5.866584569533804E-009
   26.9624250000000         5.942100797738610E-009
   27.0754750000000         6.018334670727756E-009
   27.1885250000000         6.095296891054567E-009
   27.3015750000000         6.173000509006673E-009
   27.4146250000000         6.251460485634939E-009
   27.5276750000000         6.330693120950574E-009
   27.6407250000000         6.410715485215363E-009
   27.7537750000000         6.491544775490162E-009
   27.8668250000000         6.573197736886561E-009
   27.9798750000000         6.655689971062500E-009
   28.0929250000000         6.739035210351128E-009
   28.2059750000000         6.823244709326466E-009
   28.3190250000000         6.908326527872360E-009
   28.4320750000000         6.994284875894058E-009
   28.5451250000000         7.081119599270170E-009
   28.6581750000000         7.168825612603632E-009
   28.7712250000000         7.257392417789192E-009
   28.8842750000000         7.346803860309302E-009
   28.9973250000000         7.437038018536116E-009
   29.1103750000000         7.528067255690510E-009
   29.2234250000000         7.619858581276860E-009
   29.3364750000000         7.712374258978502E-009
   29.4495250000000         7.805572611206770E-009
   29.5625750000000         7.899409264254065E-009
   29.6756250000000         7.993838649697021E-009
   29.7886750000000         8.088815772884326E-009
   29.9017250000000         8.184298297539308E-009
   30.0147750000000         8.280248752127923E-009
   30.1278250000000         8.376636758321247E-009
   30.2408750000000         8.473441509206725E-009
   30.3539250000000         8.570654081528081E-009
   30.4669750000000         8.668279419830376E-009
   30.5800250000000         8.766338075983090E-009
   30.6930750000000         8.864867456460089E-009
   30.8061250000000         8.963922492001228E-009
   30.9191750000000         9.063575518063866E-009
   31.0322250000000         9.163915385240052E-009
   31.1452750000000         9.265045718921472E-009
   31.2583250000000         9.367082238402294E-009
   31.3713750000000         9.470149070564246E-009
   31.4844250000000         9.574374264080796E-009
   31.5974750000000         9.679884645244751E-009
   31.7105250000000         9.786799928764775E-009
   31.8235750000000         9.895226400392556E-009
   31.9366250000000         1.000525048635313E-008
   32.0496750000000         1.011693233846475E-008
   32.1627250000000         1.023029986247478E-008
   32.2757750000000         1.034534343959472E-008
   32.3888250000000         1.046201162160506E-008
   32.5018750000000         1.058020816357519E-008
   32.6149250000000         1.069979065370352E-008
   32.7279750000000         1.082057110505629E-008
   32.8410250000000         1.094231847714186E-008
   32.9540750000000         1.106476322444785E-008
   33.0671250000000         1.118760428747345E-008
   33.1801750000000         1.131051817884516E-008
   33.2932250000000         1.143316977691881E-008
   33.4062750000000         1.155522508400793E-008
   33.5193250000000         1.167636526343999E-008
   33.6323750000000         1.179630168050700E-008
   33.7454250000000         1.191479133997552E-008
   33.8584750000000         1.203165197720676E-008
   33.9715250000000         1.214677660890866E-008
   34.0845750000000         1.226014632430785E-008
   34.1976250000000         1.237184107092283E-008
   34.3106750000000         1.248204759987535E-008
   34.4237250000000         1.259106388489046E-008
   34.5367750000000         1.269929974038743E-008
   34.6498250000000         1.280727288879747E-008
   34.7628750000000         1.291560055126471E-008
   34.8759250000000         1.302498598710129E-008
   34.9889750000000         1.313620024597650E-008
   35.1020250000000         1.325005961569751E-008
   35.2150750000000         1.336739857913500E-008
   35.3281250000000         1.348903914787705E-008
   35.4411750000000         1.361575755826219E-008
   35.5542250000000         1.374824905341834E-008
   35.6672750000000         1.388709207242444E-008
   35.7803250000000         1.403271287551502E-008
   35.8933750000000         1.418535224738611E-008
   36.0064250000000         1.434503570727188E-008
   36.1194750000000         1.451154855008043E-008
   36.2325250000000         1.468441740291048E-008
   36.3455750000000         1.486289954949389E-008
   36.4586250000000         1.504598126272110E-008
   36.5716750000000         1.523238626231188E-008
   36.6847250000000         1.542059529069845E-008
   36.7977750000000         1.560887686403089E-008
   36.9108250000000         1.579532961580325E-008
   37.0238750000000         1.597793600888394E-008
   37.1369250000000         1.615462651980587E-008
   37.2499750000000         1.632335319032774E-008
   37.3630250000000         1.648217097496127E-008
   37.4760750000000         1.662932444494453E-008
   37.5891250000000         1.676333749313316E-008
   37.7021750000000         1.688310293667710E-008
   37.8152250000000         1.698796855172041E-008
   37.9282750000000         1.707781610503606E-008
   38.0413250000000         1.715312910622182E-008
   38.1543750000000         1.721504597649720E-008
   38.2674250000000         1.726539450480242E-008
   38.3804750000000         1.730670412236741E-008
   38.4935250000000         1.734219293516098E-008
   38.6065750000000         1.737572695480221E-008
   38.7196250000000         1.741175000861900E-008
   38.8326750000000         1.745518303677009E-008
   38.9457250000000         1.751129345329260E-008
   39.0587750000000         1.758553590590872E-008
   39.1718250000000         1.768336701762297E-008
   39.2848750000000         1.781003836090415E-008
   39.3979250000000         1.797037306682970E-008
   39.5109750000000         1.816853258381449E-008
   39.6240250000000         1.840778159098682E-008
   39.7370750000000         1.869026026862133E-008
   39.8501250000000         1.901677313296891E-008
   39.9631750000000         1.938660482538096E-008
   40.0762250000000         1.979737334387891E-008
   40.1892750000000         2.024493038328069E-008
   40.3023250000000         2.072331830684853E-008
   40.4153750000000         2.122479210293093E-008
   40.5284250000000         2.173991253460528E-008
   40.6414750000000         2.225771515190112E-008
   40.7545250000000         2.276595715435400E-008
   40.8675750000000         2.325144094889283E-008
   40.9806250000000         2.370041060803119E-008
   41.0936750000000         2.409901343590115E-008
   41.2067250000000         2.443381619009816E-008
   41.3197750000000         2.469236151893272E-008
   41.4328250000000         2.486374694581374E-008
   41.5458750000000         2.493920675065594E-008
   41.6589250000000         2.491267390432509E-008
   41.7719750000000         2.478129797601086E-008
   41.8850250000000         2.454589431467814E-008
   41.9980750000000         2.421129949061207E-008
   42.1111250000000         2.378660948741838E-008
   42.2241750000000         2.328527906429651E-008
   42.3372250000000         2.272506421534712E-008
   42.4502750000000         2.212779407642699E-008
   42.5633250000000         2.151896354405041E-008
   42.6763750000000         2.092714471303466E-008
   42.7894250000000         2.038322188873599E-008
   42.9024750000000         1.991946209193901E-008
   43.0155250000000         1.956844134618494E-008
   43.1285750000000         1.936185410552360E-008
   43.2416250000000         1.932924037247916E-008
   43.3546750000000         1.949667202213105E-008
   43.4677250000000         1.988544490960034E-008
   43.5807750000000         2.051082782059454E-008
   43.6938250000000         2.138092155609022E-008
   43.8068750000000         2.249568204880897E-008
   43.9199250000000         2.384616003693377E-008
   44.0329750000000         2.541400613850471E-008
   44.1460250000000         2.717128397084911E-008
   44.2590750000000         2.908062595233536E-008
   44.3721250000000         3.109575628520629E-008
   44.4851750000000         3.316239313871720E-008
   44.5982250000000         3.521952906526233E-008
   44.7112750000000         3.720107353450232E-008
   44.8243250000000         3.903782610979093E-008
   44.9373750000000         4.065973428409076E-008
   45.0504250000000         4.199837447951740E-008
   45.1634750000000         4.298958134712837E-008
   45.2765250000000         4.357613911784754E-008
   45.3895750000000         4.371043954437975E-008
   45.5026250000000         4.335700416298168E-008
   45.6156750000000         4.249476630471968E-008
   45.7287250000000         4.111900907587985E-008
   45.8417750000000         3.924286063004031E-008
   45.9548250000000         3.689825707674264E-008
   46.0678750000000         3.413629682654130E-008
   46.1809250000000         3.102692764619824E-008
   46.2939750000000         2.765792739699661E-008
   46.4070250000000         2.413316406096664E-008
   46.5200750000000         2.057014595557782E-008
   46.6331250000000         1.709689997234310E-008
   46.7461750000000         1.384824349568176E-008
   46.8592250000000         1.096154270119377E-008
   46.9722750000000         8.572075026418716E-009
   47.0853250000000         6.808136171311967E-009
   47.1983750000000         5.786050845491604E-009
   47.3114250000000         5.605260357454752E-009
   47.4244750000000         6.343668892193263E-009
   47.5375250000000         8.053432323720359E-009
   47.6505750000000         1.075736920582392E-008
   47.7636250000000         1.444616245330072E-008
   47.8766750000000         1.907650173894208E-008
   47.9897250000000         2.457029202915650E-008
   48.1027750000000         3.081502314539246E-008
   48.2158250000000         3.766535889341940E-008
   48.3288750000000         4.494596402697960E-008
   48.4419250000000         5.245554423784000E-008
   48.5549750000000         5.997202970333508E-008
   48.6680250000000         6.725878786610461E-008
   48.7810750000000         7.407170831778119E-008
   48.8941250000000         8.016696275894775E-008
   49.0071750000000         8.530920870458859E-008
   49.1202250000000         8.927997719767177E-008
   49.2332750000000         9.188596457346263E-008
   49.3463250000000         9.296693700188638E-008
   49.4593750000000         9.240295428693327E-008
   49.5724250000000         9.012062940920696E-008
   49.6854750000000         8.609815862103217E-008
   49.7985250000000         8.036888629351550E-008
   49.9115750000000         7.302320863885766E-008
   50.0246250000000         6.420866826383884E-008
   50.1376750000000         5.412814628876274E-008
   50.2507250000000         4.303612063980924E-008
   50.3637750000000         3.123302420439012E-008
   50.4768250000000         1.905780257307107E-008
   50.5898750000000         6.878838225441756E-009
   50.7029250000000        -4.916529357813474E-009
   50.8159750000000        -1.593359982598777E-008
   50.9290250000000        -2.578268593922647E-008
   51.0420750000000        -3.409188630747008E-008
   51.1551250000000        -4.051984759088719E-008
   51.2681750000000        -4.476809090805942E-008
   51.3812250000000        -4.659247372695964E-008
   51.4942750000000        -4.581337050290335E-008
   51.6073250000000        -4.232418154004181E-008
   51.7203750000000        -3.609782042548578E-008
   51.8334250000000        -2.719088463405449E-008
   51.9464750000000        -1.574527965774406E-008
   52.0595250000000        -1.987144091486695E-009
   52.1725750000000         1.377699276857686E-008
   52.2856250000000         3.116679921806822E-008
   52.3986750000000         4.973736149974926E-008
   52.5117250000000         6.899083014278917E-008
   52.6247750000000         8.839019810494128E-008
   52.7378250000000         1.073748353052388E-007
   52.8508750000000         1.253773316778058E-007
   52.9639250000000         1.418411419157500E-007
   53.0769750000000         1.562384806205448E-007
   53.1900250000000         1.680878888570602E-007
   53.3030750000000         1.769708837468081E-007
   53.4161250000000         1.825471129942936E-007
   53.5291750000000         1.845674659732239E-007
   53.6422250000000         1.828846413811170E-007
   53.7552750000000         1.774607393737214E-007
   53.8683250000000         1.683715297818298E-007
   53.9813750000000         1.558071462309740E-007
   54.0944250000000         1.400690664906025E-007
   54.2074750000000         1.215633580807926E-007
   54.3205250000000         1.007902916029242E-007
   54.4335750000000         7.833054916786563E-008
   54.5466250000000         5.482837679271080E-008
   54.6596750000000         3.097214407178354E-008
   54.7727250000000         7.472878156807038E-009
   54.8857750000000        -1.495857281009594E-008
   54.9988250000000        -3.563502143040498E-008
   55.1118750000000        -5.391629385671964E-008
   55.2249250000000        -6.923165469338722E-008
   55.3379750000000        -8.110050562269088E-008
   55.4510250000000        -8.915058641192473E-008
   55.5640750000000        -9.313296102267270E-008
   55.6771250000000        -9.293315197387215E-008
   55.7901750000000        -8.857789039844651E-008
   55.9032250000000        -8.023707618889825E-008
   56.0162750000000        -6.822068998733618E-008
   56.1293250000000        -5.297055966594173E-008
   56.2423750000000        -3.504705681675165E-008
   56.3554250000000        -1.511097746515854E-008
   56.4684750000000         6.098960363830986E-009
   56.5815250000000         2.779239572512996E-008
   56.6945750000000         4.915661276671481E-008
   56.8076250000000         6.938792472302852E-008
   56.9206750000000         8.772411879896830E-008
   57.0337250000000         1.034768331646512E-007
   57.1467750000000         1.160626759869962E-007
   57.2598250000000         1.250318712730488E-007
   57.3728750000000         1.300932310351280E-007
   57.4859250000000         1.311343091120815E-007
   57.5989750000000         1.282356899203140E-007
   57.7120250000000         1.216785050812750E-007
   57.8250750000000         1.119444497032508E-007
   57.9381250000000         9.970778570487387E-008
   58.0511750000000         8.581906733505311E-008
   58.1642250000000         7.128059709016484E-008
   58.2772750000000         5.721391199049388E-008
   58.3903250000000         4.481990429932918E-008
   58.5033750000000         3.533248467432197E-008
   58.6164250000000         2.996699189274103E-008
   58.7294750000000         2.986483211789122E-008
   58.8425250000000         3.603607962899247E-008
   58.9555750000000         4.930198115942260E-008
   59.0686250000000         7.023946771171837E-008
   59.1816750000000         9.912988123511994E-008
   59.2947250000000         1.359141609883328E-007
   59.4077750000000         1.801567005570252E-007
   59.5208250000000         2.310199753856697E-007
   59.6338750000000         2.872518494139773E-007
   59.7469250000000         3.471871998279589E-007
   59.8599750000000         4.087651513167134E-007
   59.9730250000000         4.695627907035678E-007
   60.0860750000000         5.268457480948416E-007
   60.1991250000000         5.776354909842849E-007
   60.3121750000000         6.187925967359909E-007
   60.4252250000000         6.471146608471932E-007
   60.5382750000000         6.594468823430308E-007
   60.6513250000000         6.528027614323270E-007
   60.7643750000000         6.244917691469873E-007
   60.8774250000000         5.722503257995998E-007
   60.9904750000000         4.943719752771077E-007
   61.1035250000000         3.898322873226319E-007
   61.2165750000000         2.584037790353578E-007
   61.3296250000000         1.007560376517352E-007
   61.4426750000000        -8.146373568785538E-008
   61.5557250000000        -2.855743451225727E-007
   61.6687750000000        -5.078326043106317E-007
   61.7818250000000        -7.434374170439860E-007
   61.8948750000000        -9.865689284044048E-007
   62.0079250000000        -1.230464885508394E-006
   62.1209750000000        -1.467535346168337E-006
   62.2340250000000        -1.689515748587940E-006
   62.3470750000000        -1.887657129729192E-006
   62.4601250000000        -2.052950984653804E-006
   62.5731750000000        -2.176384929732151E-006
   62.6862250000000        -2.249224008553644E-006
   62.7992750000000        -2.263311202877125E-006
   62.9123250000000        -2.211379527757295E-006
   63.0253750000000        -2.087367043720172E-006
   63.1384250000000        -1.886725256225494E-006
   63.2514750000000        -1.606710736131893E-006
   63.3645250000000        -1.246649421694264E-006
   63.4775750000000        -8.081629891656650E-007
   63.5906250000000        -2.953469313586089E-007
   63.7036750000000         2.851094200285377E-007
   63.8167250000000         9.238697423025689E-007
   63.9297750000000         1.608971949853950E-006
   64.0428250000000         2.325929668466737E-006
   64.1558750000000         3.057917861439106E-006
   64.2689250000000         3.786044272883803E-006
   64.3819750000000         4.489705880752954E-006
   64.4950250000000         5.147026907392467E-006
   64.6080750000000         5.735372186121447E-006
   64.7211250000000         6.231926907052695E-006
   64.8341750000000         6.614331050227194E-006
   64.9472250000000         6.861354244654558E-006
   65.0602750000000         6.953594462542103E-006
   65.1733250000000         6.874181957724930E-006
   65.2863750000000         6.609468271803956E-006
   65.3994250000000         6.149679041564851E-006
   65.5124750000000         5.489508816463275E-006