 -0.847875000000000        -5.174900869602321E-018
 -0.734825000000000        -5.173715940736398E-018
 -0.621775000000000        -4.843983941867603E-018
 -0.508725000000000        -2.186041030403902E-018
 -0.395675000000000         1.176314441603867E-017
 -0.282625000000000         6.985820031856170E-017
 -0.169575000000000         2.731082506024302E-016
 -5.652500000000005E-002    8.857868392828296E-016
  5.652499999999994E-002    2.504774863588059E-015
  0.169575000000000         6.312949222198500E-015
  0.282625000000000         1.440630756424010E-014
  0.395675000000000         3.017320771995285E-014
  0.508725000000000         5.870993102941700E-014
  0.621775000000000         1.072754300684183E-013
  0.734825000000000         1.857934252723336E-013
  0.847875000000000         3.074089160216127E-013
  0.960925000000000         4.890929543549539E-013
   1.07397500000000         7.522795112948701E-013
   1.18702500000000         1.123507277018246E-012
   1.30007500000000         1.635041578748451E-012
   1.41312500000000         2.325442203453445E-012
   1.52617500000000         3.240041687389726E-012
   1.63922500000000         4.431312482815842E-012
   1.75227500000000         5.959075266452032E-012
   1.86532500000000         7.890542077749849E-012
   1.97837500000000         1.030015402692312E-011
   2.09142500000000         1.326919986421713E-011
   2.20447500000000         1.688520563115585E-011
   2.31752500000000         2.124109011731645E-011
   2.43057500000000         2.643408444460253E-011
   2.54362500000000         3.256442237413246E-011
   2.65667500000000         3.973385434210799E-011
   2.76972500000000         4.804397205979715E-011
   2.88277500000000         5.759441913605775E-011
   2.99582500000000         6.848098929236944E-011
   3.10887500000000         8.079371529616948E-011
   3.22192500000000         9.461497220913257E-011
   3.33497500000000         1.100176611124943E-010
   3.44802500000000         1.270635320962510E-010
   3.56107500000000         1.458017060790156E-010
   3.67412500000000         1.662674456304358E-010
   3.78717500000000         1.884812153435996E-010
   3.90022500000000         2.124480489334805E-010
   4.01327500000000         2.381572979700819E-010
   4.12632500000000         2.655827032171377E-010
   4.23937500000000         2.946828276665060E-010
   4.35242500000000         3.254018442689423E-010
   4.46547500000000         3.576706025273524E-010
   4.57852500000000         3.914079517229262E-010
   4.69157500000000         4.265222796282487E-010
   4.80462500000000         4.629131866187451E-010
   4.91767500000000         5.004732254061954E-010
   5.03072500000000         5.390896466616335E-010
   5.14377500000000         5.786461111966804E-010
   5.25682500000000         6.190242465902545E-010
   5.36987500000000         6.601050485011858E-010
   5.48292500000000         7.017700820475740E-010
   5.59597500000000         7.439024257139521E-010
   5.70902500000000         7.863874033556888E-010
   5.82207500000000         8.291130768993892E-010
   5.93512500000000         8.719705605984866E-010
   6.04817500000000         9.148541713769215E-010
   6.16122500000000         9.576614913361064E-010
   6.27427500000000         1.000293380045297E-009
   6.38732500000000         1.042654080278228E-009
   6.50037500000000         1.084651431640739E-009
   6.61342500000000         1.126197280444402E-009
   6.72647500000000         1.167208182941093E-009
   6.83952500000000         1.207606349089989E-009
   6.95257500000000         1.247320997552832E-009
   7.06562500000000         1.286290041111768E-009
   7.17867500000000         1.324462131860646E-009
   7.29172500000000         1.361798980134130E-009
   7.40477500000000         1.398277930048465E-009
   7.51782500000000         1.433894628729859E-009
   7.63087500000000         1.468665833927518E-009
   7.74392500000000         1.502632019999631E-009
   7.85697500000000         1.535859839483663E-009
   7.97002500000000         1.568444187398419E-009
   8.08307500000000         1.600509754498936E-009
   8.19612500000000         1.632212013843132E-009
   8.30917500000000         1.663737400845949E-009
   8.42222500000000         1.695302757181689E-009
   8.53527500000000         1.727153906739815E-009
   8.64832500000000         1.759563352841983E-009
   8.76137500000000         1.792827152817037E-009
   8.87442500000000         1.827261000647954E-009
   8.98747500000000         1.863195664339270E-009
   9.10052500000000         1.900971877610719E-009
   9.21357500000000         1.940934861301017E-009
   9.32662500000000         1.983428670911861E-009
   9.43967500000000         2.028790557136156E-009
   9.55272500000000         2.077345570346889E-009
   9.66577500000000         2.129401580863186E-009
   9.77882500000000         2.185244904029891E-009
   9.89187500000000         2.245136708645706E-009
   10.0049250000000         2.309310331329907E-009
   10.1179750000000         2.377969557757587E-009
   10.2310250000000         2.451287968997790E-009
   10.3440750000000         2.529409286095687E-009
   10.4571250000000         2.612448725664271E-009
   10.5701750000000         2.700495216511328E-009
   10.6832250000000         2.793614404908997E-009
   10.7962750000000         2.891852225566683E-009
   10.9093250000000         2.995238861192102E-009
   11.0223750000000         3.103792966163277E-009
   11.1354250000000         3.217525782715890E-009
   11.2484750000000         3.336445114030463E-009
   11.3615250000000         3.460558921091072E-009
   11.4745750000000         3.589878313959047E-009
   11.5876250000000         3.724419955164514E-009
   11.7006750000000         3.864207684563395E-009
   11.8137250000000         4.009273425082408E-009
   11.9267750000000         4.159657304383867E-009
   12.0398250000000         4.315407191649288E-009
   12.1528750000000         4.476577588254724E-009
   12.2659250000000         4.643228152954804E-009
   12.3789750000000         4.815421988675419E-009
   12.4920250000000         4.993223864941112E-009
   12.6050750000000         5.176698584226723E-009
   12.7181250000000         5.365909675849268E-009
   12.8311750000000         5.560918619743485E-009
   12.9442250000000         5.761784656560570E-009
   13.0572750000000         5.968565376123860E-009
   13.1703250000000         6.181318109158227E-009
   13.2833750000000         6.400102083403847E-009
   13.3964250000000         6.624981384644906E-009
   13.5094750000000         6.856028579642940E-009
   13.6225250000000         7.093328859217189E-009
   13.7355750000000         7.336984509954024E-009
   13.8486250000000         7.587119540627600E-009
   13.9616750000000         7.843884227933486E-009
   14.0747250000000         8.107459247284394E-009
   14.1877750000000         8.378059301369707E-009
   14.3008250000000         8.655935900450110E-009
   14.4138750000000         8.941379155717118E-009
   14.5269250000000         9.234718458759287E-009
   14.6399750000000         9.536321847549594E-009
   14.7530250000000         9.846594146827426E-009
   14.8660750000000         1.016597375493640E-008
   14.9791250000000         1.049492829349854E-008
   15.0921750000000         1.083394907897695E-008
   15.2052250000000         1.118354475784751E-008
   15.3182750000000         1.154423419721100E-008
   15.4313250000000         1.191653894349623E-008
   15.5443750000000         1.230097552320209E-008
   15.6574250000000         1.269804787779886E-008
   15.7704750000000         1.310824015677978E-008
   15.8835250000000         1.353201022383642E-008
   15.9965750000000         1.396978398165550E-008
   16.1096250000000         1.442195084632216E-008
   16.2226750000000         1.488886036135027E-008
   16.3357250000000         1.537082015996691E-008
   16.4487750000000         1.586809525934322E-008
   16.5618250000000         1.638090860821094E-008
   16.6748750000000         1.690944287328321E-008
   16.7879250000000         1.745384329444007E-008
   16.9009750000000         1.801422143947408E-008
   17.0140250000000         1.859065958199080E-008
   17.1270750000000         1.918321557050628E-008
   17.2401250000000         1.979192789972409E-008
   17.3531750000000         2.041682070611541E-008
   17.4662250000000         2.105790851279935E-008
   17.5792750000000         2.171520048329952E-008
   17.6923250000000         2.238870405159002E-008
   17.8053750000000         2.307842780156232E-008
   17.9184250000000         2.378438342873899E-008
   18.0314750000000         2.450658692242998E-008
   18.1445250000000         2.524505881105506E-008
   18.2575750000000         2.599982368682083E-008
   18.3706250000000         2.677090897650807E-008
   18.4836750000000         2.755834322589531E-008
   18.5967250000000         2.836215396765778E-008
   18.7097750000000         2.918236542949491E-008
   18.8228250000000         3.001899625384468E-008
   18.9358750000000         3.087205735891401E-008
   19.0489250000000         3.174155024185770E-008
   19.1619750000000         3.262746576032242E-008
   19.2750250000000         3.352978352652499E-008
   19.3880750000000         3.444847214299370E-008
   19.5011250000000         3.538349010624279E-008
   19.6141750000000         3.633478762180156E-008
   19.7272250000000         3.730230910048179E-008
   19.8402750000000         3.828599639838593E-008
   19.9533250000000         3.928579265977699E-008
   20.0663750000000         4.030164660071897E-008
   20.1794250000000         4.133351715208195E-008
   20.2924750000000         4.238137819870634E-008
   20.4055250000000         4.344522333737852E-008
   20.5185750000000         4.452507040826036E-008
   20.6316250000000         4.562096567014295E-008
   20.7446750000000         4.673298747251594E-008
   20.8577250000000         4.786124924836724E-008
   20.9707750000000         4.900590180317097E-008
   21.0838250000000         5.016713475487262E-008
   21.1968750000000         5.134517715208815E-008
   21.3099250000000         5.254029717371749E-008
   21.4229750000000         5.375280100048598E-008
   21.5360250000000         5.498303087796417E-008
   21.6490750000000         5.623136243063891E-008
   21.7621250000000         5.749820133741617E-008
   21.8751750000000         5.878397946986354E-008
   21.9882250000000         6.008915060744371E-008
   22.1012750000000         6.141418585112463E-008
   22.2143250000000         6.275956888186056E-008
   22.3273750000000         6.412579114914748E-008
   22.4404250000000         6.551334713582789E-008
   22.5534750000000         6.692272978695852E-008
   22.6665250000000         6.835442620147911E-008
   22.7795750000000         6.980891364489192E-008
   22.8926250000000         7.128665599352343E-008
   23.0056750000000         7.278810058173130E-008
   23.1187250000000         7.431367553795977E-008
   23.2317750000000         7.586378762144235E-008
   23.3448250000000         7.743882053511521E-008
   23.4578750000000         7.903913372186542E-008
   23.5709250000000         8.066506163099497E-008
   23.6839750000000         8.231691341310749E-008
   23.7970250000000         8.399497305717347E-008
   23.9100750000000         8.569949986296265E-008
   24.0231250000000         8.743072926478785E-008
   24.1361750000000         8.918887397575784E-008
   24.2492250000000         9.097412536937625E-008
   24.3622750000000         9.278665510553270E-008
   24.4753250000000         9.462661692094416E-008
   24.5883750000000         9.649414862733485E-008
   24.7014250000000         9.838937418966787E-008
   24.8144750000000         1.003124059612012E-007
   24.9275250000000         1.022633469516445E-007
   25.0405750000000         1.042422931788997E-007
   25.1536250000000         1.062493360799436E-007
   25.2666750000000         1.082845649366750E-007
   25.3797250000000         1.103480693211841E-007
   25.4927750000000         1.124399415567916E-007
   25.6058250000000         1.145602791535893E-007
   25.7188750000000         1.167091872804219E-007
   25.8319250000000         1.188867812010084E-007
   25.9449750000000         1.210931886927696E-007
   26.0580250000000         1.233285524536081E-007
   26.1710750000000         1.255930324753448E-007
   26.2841250000000         1.278868083941137E-007
   26.3971750000000         1.302100817113394E-007
   26.5102250000000         1.325630780297278E-007
   26.6232750000000         1.349460491730155E-007
   26.7363250000000         1.373592751806603E-007
   26.8493750000000         1.398030661569843E-007
   26.9624250000000         1.422777639584796E-007
   27.0754750000000         1.447837436425838E-007
   27.1885250000000         1.473214146618057E-007
   27.3015750000000         1.498912218133543E-007
   27.4146250000000         1.524936457625658E-007
   27.5276750000000         1.551292032652503E-007
   27.6407250000000         1.577984468981432E-007
   27.7537750000000         1.605019643848744E-007
   27.8668250000000         1.632403774129320E-007
   27.9798750000000         1.660143399404585E-007
   28.0929250000000         1.688245360154815E-007
   28.2059750000000         1.716716770312928E-007
   28.3190250000000         1.745564985366615E-007
   28.4320750000000         1.774797565109195E-007
   28.5451250000000         1.804422232312353E-007
   28.6581750000000         1.834446827289201E-007
   28.7712250000000         1.864879258898164E-007
   28.8842750000000         1.895727452950068E-007
   28.9973250000000         1.926999298468204E-007
   29.1103750000000         1.958702592642671E-007
   29.2234250000000         1.990844985526146E-007
   29.3364750000000         2.023433925145135E-007
   29.4495250000000         2.056476603899313E-007
   29.5625750000000         2.089979906793067E-007
   29.6756250000000         2.123950363177728E-007
   29.7886750000000         2.158394101838815E-007
   29.9017250000000         2.193316810775583E-007
   30.0147750000000         2.228723702286495E-007
   30.1278250000000         2.264619484122821E-007
   30.2408750000000         2.301008336875990E-007
   30.3539250000000         2.337893899304442E-007
   30.4669750000000         2.375279260818731E-007
   30.5800250000000         2.413166962891296E-007
   30.6930750000000         2.451559009139931E-007
   30.8061250000000         2.490456884859000E-007
   30.9191750000000         2.529861586257354E-007
   31.0322250000000         2.569773659560690E-007
   31.1452750000000         2.610193250257935E-007
   31.2583250000000         2.651120161994120E-007
   31.3713750000000         2.692553925400612E-007
   31.4844250000000         2.734493875285139E-007
   31.5974750000000         2.776939236109854E-007
   31.7105250000000         2.819889214119062E-007
   31.8235750000000         2.863343094253255E-007
   31.9366250000000         2.907300339866980E-007
   32.0496750000000         2.951760692924823E-007
   32.1627250000000         2.996724271944567E-007
   32.2757750000000         3.042191664556359E-007
   32.3888250000000         3.088164011103331E-007
   32.5018750000000         3.134643076380189E-007
   32.6149250000000         3.181631306006390E-007
   32.7279750000000         3.229131864238596E-007
   32.8410250000000         3.277148650109395E-007
   32.9540750000000         3.325686290333461E-007
   33.0671250000000         3.374750106533696E-007
   33.1801750000000         3.424346056152550E-007
   33.2932250000000         3.474480647467306E-007
   33.4062750000000         3.525160829393511E-007
   33.5193250000000         3.576393858854175E-007
   33.6323750000000         3.628187148571579E-007
   33.7454250000000         3.680548100507185E-007
   33.8584750000000         3.733483930057184E-007
   33.9715250000000         3.787001487727832E-007
   34.0845750000000         3.841107085171700E-007
   34.1976250000000         3.895806333742985E-007
   34.3106750000000         3.951104002730265E-007
   34.4237250000000         4.007003904998824E-007
   34.5367750000000         4.063508816779907E-007
   34.6498250000000         4.120620437835816E-007
   34.7628750000000         4.178339396654628E-007
   34.8759250000000         4.236665303301126E-007
   34.9889750000000         4.295596851607853E-007
   35.1020250000000         4.355131969542730E-007
   35.2150750000000         4.415268014212427E-007
   35.3281250000000         4.476002006548429E-007
   35.4411750000000         4.537330898120930E-007
   35.5542250000000         4.599251859932886E-007
   35.6672750000000         4.661762582401692E-007
   35.7803250000000         4.724861574150708E-007
   35.8933750000000         4.788548445877704E-007
   36.0064250000000         4.852824166245685E-007
   36.1194750000000         4.917691276858237E-007
   36.2325250000000         4.983154053665826E-007
   36.3455750000000         5.049218605888547E-007
   36.4586250000000         5.115892903433357E-007
   36.5716750000000         5.183186728363691E-007
   36.6847250000000         5.251111548260179E-007
   36.7977750000000         5.319680313922979E-007
   36.9108250000000         5.388907186051673E-007
   37.0238750000000         5.458807200307572E-007
   37.1369250000000         5.529395883340414E-007
   37.2499750000000         5.600688834529897E-007
   37.3630250000000         5.672701291855944E-007
   37.4760750000000         5.745447699784614E-007
   37.5891250000000         5.818941300715886E-007
   37.7021750000000         5.893193768041280E-007
   37.8152250000000         5.968214899731639E-007
   37.9282750000000         6.044012387750992E-007
   38.0413250000000         6.120591676242004E-007
   38.1543750000000         6.197955916628084E-007
   38.2674250000000         6.276106022765698E-007
   38.3804750000000         6.355040824700434E-007
   38.4935250000000         6.434757313522821E-007
   38.6065750000000         6.515250965190812E-007
   38.7196250000000         6.596516125322952E-007
   38.8326750000000         6.678546434041591E-007
   38.9457250000000         6.761335265539648E-007
   39.0587750000000         6.844876156847046E-007
   39.1718250000000         6.929163197941941E-007
   39.2848750000000         7.014191358939944E-007
   39.3979250000000         7.099956731300840E-007
   39.5109750000000         7.186456665665531E-007
   39.6240250000000         7.273689795452970E-007
   39.7370750000000         7.361655940862855E-007
   39.8501250000000         7.450355900248974E-007
   39.9631750000000         7.539791139977916E-007
   40.0762250000000         7.629963407272556E-007
   40.1892750000000         7.720874295945352E-007
   40.3023250000000         7.812524804042852E-007
   40.4153750000000         7.904914927569947E-007
   40.5284250000000         7.998043337204138E-007
   40.6414750000000         8.091907187237246E-007
   40.7545250000000         8.186502102498894E-007
   40.8675750000000         8.281822383211495E-007
   40.9806250000000         8.377861459800785E-007
   41.0936750000000         8.474612616416626E-007
   41.2067250000000         8.572069986706741E-007
   41.3197750000000         8.670229808366500E-007
   41.4328250000000         8.769091903021858E-007
   41.5458750000000         8.868661326489835E-007
   41.6589250000000         8.968950116229915E-007
   41.7719750000000         9.069979042463196E-007
   41.8850250000000         9.171779253410759E-007
   41.9980750000000         9.274393692908819E-007
   42.1111250000000         9.377878160195956E-007
   42.2241750000000         9.482301881417264E-007
   42.3372250000000         9.587747466909740E-007
   42.4502750000000         9.694310142305486E-007
   42.5633250000000         9.802096162056152E-007
   42.6763750000000         9.911220343643781E-007
   42.7894250000000         1.002180269546833E-006
   42.9024750000000         1.013396415733925E-006
   43.0155250000000         1.024782151789519E-006
   43.1285750000000         1.036348162674732E-006
   43.2416250000000         1.048103507129400E-006
   43.3546750000000         1.060054954019375E-006
   43.4677250000000         1.072206314379785E-006
   43.5807750000000         1.084557800301338E-006
   43.6938250000000         1.097105444957469E-006
   43.8068750000000         1.109840620129352E-006
   43.9199250000000         1.122749688034377E-006
   44.0329750000000         1.135813823000516E-006
   44.1460250000000         1.149009035665878E-006
   44.2590750000000         1.162306427442647E-006
   44.3721250000000         1.175672696105364E-006
   44.4851750000000         1.189070904845822E-006
   44.5982250000000         1.202461516837940E-006
   44.7112750000000         1.215803685672865E-006
   44.8243250000000         1.229056779518314E-006
   44.9373750000000         1.242182103648448E-006
   45.0504250000000         1.255144772768708E-006
   45.1634750000000         1.267915672125390E-006
   45.2765250000000         1.280473434847178E-006
   45.3895750000000         1.292806353543056E-006
   45.5026250000000         1.304914136959152E-006
   45.6156750000000         1.316809418651228E-006
   45.7287250000000         1.328518924006931E-006
   45.8417750000000         1.340084205485981E-006
   45.9548250000000         1.351561863753069E-006
   46.0678750000000         1.363023184404406E-006
   46.1809250000000         1.374553136528815E-006
   46.2939750000000         1.386248699845468E-006
   46.4070250000000         1.398216511282722E-006
   46.5200750000000         1.410569849136650E-006
   46.6331250000000         1.423425002223121E-006
   46.7461750000000         1.436897102012812E-006
   46.8592250000000         1.451095526188378E-006
   46.9722750000000         1.466119011435371E-006
   47.0853250000000         1.482050639819278E-006
   47.1983750000000         1.498952885857506E-006
   47.3114250000000         1.516862928773933E-006
   47.4244750000000         1.535788445234545E-006
   47.5375250000000         1.555704100984929E-006
   47.6505750000000         1.576548954634882E-006
   47.7636250000000         1.598224972132884E-006
   47.8766750000000         1.620596826669831E-006
   47.9897250000000         1.643493125310178E-006
   48.1027750000000         1.666709161406339E-006
   48.2158250000000         1.690011241291205E-006
   48.3288750000000         1.713142576529007E-006
   48.4419250000000         1.735830670314051E-006
   48.5549750000000         1.757796060927117E-006
   48.6680250000000         1.778762218336568E-006
   48.7810750000000         1.798466324870463E-006
   48.8941250000000         1.816670610283707E-006
   49.0071750000000         1.833173857878193E-006
   49.1202250000000         1.847822654672934E-006
   49.2332750000000         1.860521927684667E-006
   49.3463250000000         1.871244292128223E-006
   49.4593750000000         1.880037738331206E-006
   49.5724250000000         1.887031203233733E-006
   49.6854750000000         1.892437611264301E-006
   49.7985250000000         1.896554027450693E-006
   49.9115750000000         1.899758643108798E-006
   50.0246250000000         1.902504409795809E-006
   50.1376750000000         1.905309248171785E-006
   50.2507250000000         1.908742882349844E-006
   50.3637750000000         1.913410483632844E-006
   50.4768250000000         1.919933445670904E-006
   50.5898750000000         1.928927751510004E-006
   50.7029250000000         1.940980526156234E-006
   50.8159750000000         1.956625490996270E-006
   50.9290250000000         1.976318142711113E-006
   51.0420750000000         2.000411563945942E-006
   51.1551250000000         2.029133830962743E-006
   51.2681750000000         2.062568010121692E-006
   51.3812250000000         2.100635726544374E-006
   51.4942750000000         2.143085242472402E-006
   51.6073250000000         2.189484897442547E-006
   51.7203750000000         2.239222638028849E-006
   51.8334250000000         2.291512202290305E-006
   51.9464750000000         2.345406326452182E-006
   52.0595250000000         2.399817112841037E-006
   52.1725750000000         2.453543444855816E-006
   52.2856250000000         2.505305063808621E-006
   52.3986750000000         2.553782642703362E-006
   52.5117250000000         2.597662912613407E-006
   52.6247750000000         2.635687629132319E-006
   52.7378250000000         2.666704919690658E-006
   52.8508750000000         2.689721338649051E-006
   52.9639250000000         2.703952786130746E-006
   53.0769750000000         2.708872328719969E-006
   53.1900250000000         2.704252903863113E-006
   53.3030750000000         2.690202902211945E-006
   53.4161250000000         2.667192708496788E-006
   53.5291750000000         2.636070444527084E-006
   53.6422250000000         2.598065398054880E-006
   53.7552750000000         2.554777936221488E-006
   53.8683250000000         2.508155086514429E-006
   53.9813750000000         2.460451413442630E-006
   54.0944250000000         2.414175314929077E-006
   54.2074750000000         2.372021394159106E-006
   54.3205250000000         2.336790115114546E-006
   54.4335750000000         2.311296504530484E-006
   54.5466250000000         2.298270200626666E-006
   54.6596750000000         2.300249648789661E-006
   54.7727250000000         2.319473686354380E-006
   54.8857750000000         2.357774121967627E-006
   54.9988250000000         2.416473181699969E-006
   55.1118750000000         2.496289846209558E-006
   55.2249250000000         2.597259127672713E-006
   55.3379750000000         2.718668220313435E-006
   55.4510250000000         2.859013197970067E-006
   55.5640750000000         3.015979523741207E-006
   55.6771250000000         3.186449083491863E-006
   55.7901750000000         3.366535764534692E-006
   55.9032250000000         3.551650786403502E-006
   56.0162750000000         3.736598071280292E-006
   56.1293250000000         3.915698939995792E-006
   56.2423750000000         4.082944364222504E-006
   56.3554250000000         4.232171927719895E-006
   56.4684750000000         4.357263584364869E-006
   56.5815250000000         4.452359284647341E-006
   56.6945750000000         4.512080613471663E-006
   56.8076250000000         4.531757777502878E-006
   56.9206750000000         4.507652636021602E-006
   57.0337250000000         4.437170018467784E-006
   57.1467750000000         4.319049343059523E-006
   57.2598250000000         4.153528568173986E-006
   57.3728750000000         3.942472787893658E-006
   57.4859250000000         3.689460335552303E-006
   57.5989750000000         3.399820084844664E-006
   57.7120250000000         3.080614730038650E-006
   57.8250750000000         2.740566167981878E-006
   57.9381250000000         2.389920669073979E-006
   58.0511750000000         2.040253277605593E-006
   58.1642250000000         1.704212780217804E-006
   58.2772750000000         1.395210574399807E-006
   58.3903250000000         1.127058800046366E-006
   58.5033750000000         9.135651039697472E-007
   58.6164250000000         7.680933254421826E-007
   58.7294750000000         7.031011537543506E-007
   58.8425250000000         7.296673512179333E-007
   58.9555750000000         8.570223940485617E-007
   59.0686250000000         1.092097301747745E-006
   59.1816750000000         1.439105952326626E-006
   59.2947250000000         1.899176274290425E-006
   59.4077750000000         2.470045336523445E-006
   59.5208250000000         3.145832505287920E-006
   59.6338750000000         3.916903499585945E-006
   59.7469250000000         4.769836361804280E-006
   59.8599750000000         5.687498095280549E-006
   59.9730250000000         6.649238044366594E-006
   60.0860750000000         7.631201060656368E-006
   60.1991250000000         8.606760180525580E-006
   60.3121750000000         9.547065014552737E-006
   60.4252250000000         1.042169841136220E-005
   60.5382750000000         1.119943030693688E-005
   60.6513250000000         1.184905411157103E-005
   60.7643750000000         1.234028762993912E-005
   60.8774250000000         1.264471746369655E-005
   60.9904750000000         1.273676321681680E-005
   61.1035250000000         1.259463570978636E-005
   61.2165750000000         1.220126189940001E-005
   61.3296250000000         1.154514837212602E-005
   61.4426750000000         1.062115519059273E-005
   61.5557250000000         9.431152567379865E-006
   61.6687750000000         7.984534338951351E-006
   61.7818250000000         6.298564514953943E-006
   61.8948750000000         4.398536261608376E-006
   62.0079250000000         2.317726495749430E-006
   62.1209750000000         9.713374963744898E-008
   62.2340250000000        -2.215007974632927E-006
   62.3470750000000        -4.563941119426881E-006
   62.4601250000000        -6.889318153505191E-006
   62.5731750000000        -9.126346667814745E-006
   62.6862250000000        -1.120712973930521E-005
   62.7992750000000        -1.306217934633220E-005
   62.9123250000000        -1.462207493458038E-005
   63.0253750000000        -1.581923399558219E-005
   63.1384250000000        -1.658975688808869E-005
   63.2514750000000        -1.687530424998436E-005
   63.3645250000000        -1.662496234688275E-005
   63.4775750000000        -1.579704969313104E-005
   63.5906250000000        -1.436081735091598E-005
   63.7036750000000        -1.229799552531558E-005
   63.8167250000000        -9.604140462812027E-006
   63.9297750000000        -6.289738231314068E-006
   64.0428250000000        -2.381025686002660E-006
   64.1558750000000         2.079506250174987E-006
   64.2689250000000         7.032956025799085E-006
   64.3819750000000         1.240422392000791E-005
   64.4950250000000         1.810260832822181E-005
   64.6080750000000         2.402279259144771E-005
   64.7211250000000         3.004622057788917E-005
   64.8341750000000         3.604285049090001E-005
   64.9472250000000         4.187326761707727E-005
   65.0602750000000         4.739112814433585E-005
   65.1733250000000         5.244589797287058E-005
   65.2863750000000         5.688584280378435E-005
   65.3994250000000         6.056121889979729E-005
   65.5124750000000         6.332760793066559E-005