 -0.847875000000000         1.853411279524502E-024
 -0.734825000000000         9.362367274999120E-023
 -0.621775000000000         8.078355834163533E-022
 -0.508725000000000         4.439109588180865E-021
 -0.395675000000000         1.914181733199525E-020
 -0.282625000000000         6.909094369608635E-020
 -0.169575000000000         2.145562602550651E-019
 -5.652500000000005E-002    5.831840082630201E-019
  5.652499999999994E-002    1.407719938813231E-018
  0.169575000000000         3.059817405500784E-018
  0.282625000000000         6.070691014186545E-018
  0.395675000000000         1.113760360541710E-017
  0.508725000000000         1.912308257389096E-017
  0.621775000000000         3.105496980204416E-017
  0.734825000000000         4.813060488561201E-017
  0.847875000000000         7.172100721283804E-017
  0.960925000000000         1.033699034419315E-016
   1.07397500000000         1.447848943125963E-016
   1.18702500000000         1.978158473422713E-016
   1.30007500000000         2.644186222724286E-016
   1.41312500000000         3.466060386581069E-016
   1.52617500000000         4.463864437106467E-016
   1.63922500000000         5.656899473488999E-016
   1.75227500000000         7.062836563600878E-016
   1.86532500000000         8.696809414586818E-016
   1.97837500000000         1.057045928393180E-015
   2.09142500000000         1.269095296496345E-015
   2.20447500000000         1.506000095048005E-015
   2.31752500000000         1.767304220927118E-015
   2.43057500000000         2.051843864675394E-015
   2.54362500000000         2.357676484111348E-015
   2.65667500000000         2.682059435933384E-015
   2.76972500000000         3.021416256037624E-015
   2.88277500000000         3.371345566306811E-015
   2.99582500000000         3.726665008814408E-015
   3.10887500000000         4.081474411706001E-015
   3.22192500000000         4.429238799895552E-015
   3.33497500000000         4.762923639492556E-015
   3.44802500000000         5.075145057063052E-015
   3.56107500000000         5.358324572712649E-015
   3.67412500000000         5.604886821385613E-015
   3.78717500000000         5.807458152027310E-015
   3.90022500000000         5.959059907363700E-015
   4.01327500000000         6.053296114074096E-015
   4.12632500000000         6.084546145631739E-015
   4.23937500000000         6.048125011542003E-015
   4.35242500000000         5.940416223263769E-015
   4.46547500000000         5.758974801842776E-015
   4.57852500000000         5.502596892041913E-015
   4.69157500000000         5.171345765780456E-015
   4.80462500000000         4.766511147536260E-015
   4.91767500000000         4.290537696825721E-015
   5.03072500000000         3.746954040695789E-015
   5.14377500000000         3.140220799497507E-015
   5.25682500000000         2.475531804563936E-015
   5.36987500000000         1.758628222770981E-015
   5.48292500000000         9.955914760541574E-016
   5.59597500000000         1.926151579042270E-016
   5.70902500000000        -6.442069479341006E-016
   5.82207500000000        -1.509085685919820E-015
   5.93512500000000        -2.396706508183083E-015
   6.04817500000000        -3.302366758159454E-015
   6.16122500000000        -4.222083943336622E-015
   6.27427500000000        -5.152644562311124E-015
   6.38732500000000        -6.091612347589261E-015
   6.50037500000000        -7.037290223482600E-015
   6.61342500000000        -7.988612492295333E-015
   6.72647500000000        -8.945019678630780E-015
   6.83952500000000        -9.906298605971811E-015
   6.95257500000000        -1.087236723018610E-014
   7.06562500000000        -1.184307256433110E-014
   7.17867500000000        -1.281797832577684E-014
   7.29172500000000        -1.379613957576603E-014
   7.40477500000000        -1.477590600443675E-014
   7.51782500000000        -1.575477879450193E-014
   7.63087500000000        -1.672927996492999E-014
   7.74392500000000        -1.769486715634211E-014
   7.85697500000000        -1.864594633148858E-014
   7.97002500000000        -1.957588039827875E-014
   8.08307500000000        -2.047708875274121E-014
   8.19612500000000        -2.134121537874627E-014
   8.30917500000000        -2.215930802151622E-014
   8.42222500000000        -2.292205481893672E-014
   8.53527500000000        -2.362006073756457E-014
   8.64832500000000        -2.424413093117934E-014
   8.76137500000000        -2.478554059769337E-014
   8.87442500000000        -2.523632185359775E-014
   8.98747500000000        -2.558951829281943E-014
   9.10052500000000        -2.583938619986765E-014
   9.21357500000000        -2.598155742490187E-014
   9.32662500000000        -2.601315819158516E-014
   9.43967500000000        -2.593285571341458E-014
   9.55272500000000        -2.574084192294012E-014
   9.66577500000000        -2.543875800032229E-014
   9.77882500000000        -2.502958181662537E-014
   9.89187500000000        -2.451741223794373E-014
   10.0049250000000        -2.390725105101027E-014
   10.1179750000000        -2.320477944805870E-014
   10.2310250000000        -2.241607623088891E-014
   10.3440750000000        -2.154735747422735E-014
   10.4571250000000        -2.060472725727266E-014
   10.5701750000000        -1.959396962174658E-014
   10.6832250000000        -1.852034456721155E-014
   10.7962750000000        -1.738847228572799E-014
   10.9093250000000        -1.620226245813176E-014
   11.0223750000000        -1.496489012136142E-014
   11.1354250000000        -1.367883829229763E-014
   11.2484750000000        -1.234598098142721E-014
   11.3615250000000        -1.096773178099174E-014
   11.4745750000000        -9.545214884977319E-015
   11.5876250000000        -8.079444447337965E-015
   11.7006750000000        -6.571540378664317E-015
   11.8137250000000        -5.022917565471207E-015
   11.9267750000000        -3.435457250382720E-015
   12.0398250000000        -1.811635658771053E-015
   12.1528750000000        -1.546118563250748E-016
   12.2659250000000         1.531741322893731E-015
   12.3789750000000         3.242879596368693E-015
   12.4920250000000         4.973695567171052E-015
   12.6050750000000         6.718698970217917E-015
   12.7181250000000         8.472221843948583E-015
   12.8311750000000         1.022870682501750E-014
   12.9442250000000         1.198302735581476E-014
   13.0572750000000         1.373081578828761E-014
   13.1703250000000         1.546879218582241E-014
   13.2833750000000         1.719508442168085E-014
   13.3964250000000         1.890950375865327E-014
   13.5094750000000         2.061377740226608E-014
   13.6225250000000         2.231170152629722E-014
   13.7355750000000         2.400920632232609E-014
   13.8486250000000         2.571434237493286E-014
   13.9616750000000         2.743715172480633E-014
   14.0747250000000         2.918945678739548E-014
   14.1877750000000         3.098457189627305E-014
   14.3008250000000         3.283689688505900E-014
   14.4138750000000         3.476146772792865E-014
   14.5269250000000         3.677345884412523E-014
   14.6399750000000         3.888765418350215E-014
   14.7530250000000         4.111791947676875E-014
   14.8660750000000         4.347669169774572E-014
   14.9791250000000         4.597448610501925E-014
   15.0921750000000         4.861949962477514E-014
   15.2052250000000         5.141729273178273E-014
   15.3182750000000         5.437055486155926E-014
   15.4313250000000         5.747898565800829E-014
   15.5443750000000         6.073928395092554E-014
   15.6574250000000         6.414525638998205E-014
   15.7704750000000         6.768804791221949E-014
   15.8835250000000         7.135644315980046E-014
   15.9965750000000         7.513726662394745E-014
   16.1096250000000         7.901585179046303E-014
   16.2226750000000         8.297652668701969E-014
   16.3357250000000         8.700317324009295E-014
   16.4487750000000         9.107975130166597E-014
   16.5618250000000         9.519078635477281E-014
   16.6748750000000         9.932182395322383E-014
   16.7879250000000         1.034598155831354E-013
   16.9009750000000         1.075934284147940E-013
   17.0140250000000         1.117132719575364E-013
   17.1270750000000         1.158120086350102E-013
   17.2401250000000         1.198843857158557E-013
   17.3531750000000         1.239271609753097E-013
   17.4662250000000         1.279389479496925E-013
   17.5792750000000         1.319199959482255E-013
   17.6923250000000         1.358719105110275E-013
   17.8053750000000         1.397973436522431E-013
   17.9184250000000         1.436996601388818E-013
   18.0314750000000         1.475826041369484E-013
   18.1445250000000         1.514500033893223E-013
   18.2575750000000         1.553054850531371E-013
   18.3706250000000         1.591522574324948E-013
   18.4836750000000         1.629929613442044E-013
   18.5967250000000         1.668295690551846E-013
   18.7097750000000         1.706633805859446E-013
   18.8228250000000         1.744950653593543E-013
   18.9358750000000         1.783247679826703E-013
   19.0489250000000         1.821522898274424E-013
   19.1619750000000         1.859772684701915E-013
   19.2750250000000         1.897994327003221E-013
   19.3880750000000         1.936188475599558E-013
   19.5011250000000         1.974361336500931E-013
   19.6141750000000         2.012527029181203E-013
   19.7272250000000         2.050709352667632E-013
   19.8402750000000         2.088943088088654E-013
   19.9533250000000         2.127274912864446E-013
   20.0663750000000         2.165763665029343E-013
   20.1794250000000         2.204479903509421E-013
   20.2924750000000         2.243504918916782E-013
   20.4055250000000         2.282929006634801E-013
   20.5185750000000         2.322849728659660E-013
   20.6316250000000         2.363369360407029E-013
   20.7446750000000         2.404592147001846E-013
   20.8577250000000         2.446621686080237E-013
   20.9707750000000         2.489557986183173E-013
   21.0838250000000         2.533494959386916E-013
   21.1968750000000         2.578518018979303E-013
   21.3099250000000         2.624702016153915E-013
   21.4229750000000         2.672109822038147E-013
   21.5360250000000         2.720791247883890E-013
   21.6490750000000         2.770782533086293E-013
   21.7621250000000         2.822106516916325E-013
   21.8751750000000         2.874773045205757E-013
   21.9882250000000         2.928779955848095E-013
   22.1012750000000         2.984114543836682E-013
   22.2143250000000         3.040755195685916E-013
   22.3273750000000         3.098673317102731E-013
   22.4404250000000         3.157835240826553E-013
   22.5534750000000         3.218204191065000E-013
   22.6665250000000         3.279742107386905E-013
   22.7795750000000         3.342411445418753E-013
   22.8926250000000         3.406176557317993E-013
   23.0056750000000         3.471004780751548E-013
   23.1187250000000         3.536867435495567E-013
   23.2317750000000         3.603740302718200E-013
   23.3448250000000         3.671603794821906E-013
   23.4578750000000         3.740443055797257E-013
   23.5709250000000         3.810247646983092E-013
   23.6839750000000         3.881011092736097E-013
   23.7970250000000         3.952730363038016E-013
   23.9100750000000         4.025405111596111E-013
   24.0231250000000         4.099037222155264E-013
   24.1361750000000         4.173630133234243E-013
   24.2492250000000         4.249188254204075E-013
   24.3622750000000         4.325716634296750E-013
   24.4753250000000         4.403220643648102E-013
   24.5883750000000         4.481705776607370E-013
   24.7014250000000         4.561177721765519E-013
   24.8144750000000         4.641642441946161E-013
   24.9275250000000         4.723106313131181E-013
   25.0405750000000         4.805576298128794E-013
   25.1536250000000         4.889060257706766E-013
   25.2666750000000         4.973567356111770E-013
   25.3797250000000         5.059108203028655E-013
   25.4927750000000         5.145695176934824E-013
   25.6058250000000         5.233342580713360E-013
   25.7188750000000         5.322066733032981E-013
   25.8319250000000         5.411886121720834E-013
   25.9449750000000         5.502821438742310E-013
   26.0580250000000         5.594895577686997E-013
   26.1710750000000         5.688133688608122E-013
   26.2841250000000         5.782563177318937E-013
   26.3971750000000         5.878213715717255E-013
   26.5102250000000         5.975117356004924E-013
   26.6232750000000         6.073308665745978E-013
   26.7363250000000         6.172824864544668E-013
   26.8493750000000         6.273706009721940E-013
   26.9624250000000         6.375994995998719E-013
   27.0754750000000         6.479737725972601E-013
   27.1885250000000         6.584983307234117E-013
   27.3015750000000         6.691783682662279E-013
   27.4146250000000         6.800193405129412E-013
   27.5276750000000         6.910269143240706E-013
   27.6407250000000         7.022068725086108E-013
   27.7537750000000         7.135650033924915E-013
   27.8668250000000         7.251069572040871E-013
   27.9798750000000         7.368380627306368E-013
   28.0929250000000         7.487631131788713E-013
   28.2059750000000         7.608861331692507E-013
   28.3190250000000         7.732101172291854E-013
   28.4320750000000         7.857367706125933E-013
   28.5451250000000         7.984662571736137E-013
   28.6581750000000         8.113969486379484E-013
   28.7712250000000         8.245252128474648E-013
   28.8842750000000         8.378452573693221E-013
   28.9973250000000         8.513490302600285E-013
   29.1103750000000         8.650262008316639E-013
   29.2234250000000         8.788642372990398E-013
   29.3364750000000         8.928485755764274E-013
   29.4495250000000         9.069628961779259E-013
   29.5625750000000         9.211895234270835E-013
   29.6756250000000         9.355099153941614E-013
   29.7886750000000         9.499052561060454E-013
   29.9017250000000         9.643571430031196E-013
   30.0147750000000         9.788483243581802E-013
   30.1278250000000         9.933634702810609E-013
   30.2408750000000         1.007889971220376E-012
   30.3539250000000         1.022418709411821E-012
   30.4669750000000         1.036944760698571E-012
   30.5800250000000         1.051468004293568E-012
   30.6930750000000         1.065993603535308E-012
   30.8061250000000         1.080532320953598E-012
   30.9191750000000         1.095100620074294E-012
   31.0322250000000         1.109720549792180E-012
   31.1452750000000         1.124419393751466E-012
   31.2583250000000         1.139229059139750E-012
   31.3713750000000         1.154185196315076E-012
   31.4844250000000         1.169326080843167E-012
   31.5974750000000         1.184691291919640E-012
   31.7105250000000         1.200320172003432E-012
   31.8235750000000         1.216250147465370E-012
   31.9366250000000         1.232514962408183E-012
   32.0496750000000         1.249142871246748E-012
   32.1627250000000         1.266154889266131E-012
   32.2757750000000         1.283563156557482E-012
   32.3888250000000         1.301369497392807E-012
   32.5018750000000         1.319564255750310E-012
   32.6149250000000         1.338125486668789E-012
   32.7279750000000         1.357018589201677E-012
   32.8410250000000         1.376196399969302E-012
   32.9540750000000         1.395599810047214E-012
   33.0671250000000         1.415158967569960E-012
   33.1801750000000         1.434795036351600E-012
   33.2932250000000         1.454422492891561E-012
   33.4062750000000         1.473951958891611E-012
   33.5193250000000         1.493293491845974E-012
   33.6323750000000         1.512360252807703E-012
   33.7454250000000         1.531072442506111E-012
   33.8584750000000         1.549361366125391E-012
   33.9715250000000         1.567173510945357E-012
   34.0845750000000         1.584474423782203E-012
   34.1976250000000         1.601252263374253E-012
   34.3106750000000         1.617520829020597E-012
   34.4237250000000         1.633321865898973E-012
   34.5367750000000         1.648726529604348E-012
   34.6498250000000         1.663835811389208E-012
   34.7628750000000         1.678779834938306E-012
   34.8759250000000         1.693715885235353E-012
   34.9889750000000         1.708825135732222E-012
   35.1020250000000         1.724308100446216E-012
   35.2150750000000         1.740378763535601E-012
   35.3281250000000         1.757257519869111E-012
   35.4411750000000         1.775163089852384E-012
   35.5542250000000         1.794303579003357E-012
   35.6672750000000         1.814866974006700E-012
   35.7803250000000         1.837011340988755E-012
   35.8933750000000         1.860855114677554E-012
   36.0064250000000         1.886467861465755E-012
   36.1194750000000         1.913861911805474E-012
   36.2325250000000         1.942985319456405E-012
   36.3455750000000         1.973716548469508E-012
   36.4586250000000         2.005861293526754E-012
   36.5716750000000         2.039151797140797E-012
   36.6847250000000         2.073249007817077E-012
   36.7977750000000         2.107747744024306E-012
   36.9108250000000         2.142185044989804E-012
   37.0238750000000         2.176051753041486E-012
   37.1369250000000         2.208807198498045E-012
   37.2499750000000         2.239896795264043E-012
   37.3630250000000         2.268772181428867E-012
   37.4760750000000         2.294913377569079E-012
   37.5891250000000         2.317852359129825E-012
   37.7021750000000         2.337197266001606E-012
   37.8152250000000         2.352656370369908E-012
   37.9282750000000         2.364060866932995E-012
   38.0413250000000         2.371385400612145E-012
   38.1543750000000         2.374765368346399E-012
   38.2674250000000         2.374509905786603E-012
   38.3804750000000         2.371109573779996E-012
   38.4935250000000         2.365237878352531E-012
   38.6065750000000         2.357745869712570E-012
   38.7196250000000         2.349649310268207E-012
   38.8326750000000         2.342108023156807E-012
   38.9457250000000         2.336397436891383E-012
   39.0587750000000         2.333872564091185E-012
   39.1718250000000         2.335924979090080E-012
   39.2848750000000         2.343933743509025E-012
   39.3979250000000         2.359211519577746E-012
   39.5109750000000         2.382947429741069E-012
   39.6240250000000         2.416148550208233E-012
   39.7370750000000         2.459582214174227E-012
   39.8501250000000         2.513721363356221E-012
   39.9631750000000         2.578695427184322E-012
   40.0762250000000         2.654249240058998E-012
   40.1892750000000         2.739712359589630E-012
   40.3023250000000         2.833981076601787E-012
   40.4153750000000         2.935515146619096E-012
   40.5284250000000         3.042350837781102E-012
   40.6414750000000         3.152131449059525E-012
   40.7545250000000         3.262155904523009E-012
   40.8675750000000         3.369445348300385E-012
   40.9806250000000         3.470826987471329E-012
   41.0936750000000         3.563033630200530E-012
   41.2067250000000         3.642816692605369E-012
   41.3197750000000         3.707069619420189E-012
   41.4328250000000         3.752957964227897E-012
   41.5458750000000         3.778051857033524E-012
   41.6589250000000         3.780455966471424E-012
   41.7719750000000         3.758931749960666E-012
   41.8850250000000         3.713006625125435E-012
   41.9980750000000         3.643064637029205E-012
   42.1111250000000         3.550413468792522E-012
   42.2241750000000         3.437323044785806E-012
   42.3372250000000         3.307031665507106E-012
   42.4502750000000         3.163716504409295E-012
   42.5633250000000         3.012426341851312E-012
   42.6763750000000         2.858975729547613E-012
   42.7894250000000         2.709801160090033E-012
   42.9024750000000         2.571781299968098E-012
   43.0155250000000         2.452024969479145E-012
   43.1285750000000         2.357632042587128E-012
   43.2416250000000         2.295433902256039E-012
   43.3546750000000         2.271721479363387E-012
   43.4677250000000         2.291969987013983E-012
   43.5807750000000         2.360570402439766E-012
   43.6938250000000         2.480578252593632E-012
   43.8068750000000         2.653490467747531E-012
   43.9199250000000         2.879060903872945E-012
   44.0329750000000         3.155164494604686E-012
   44.1460250000000         3.477718921649490E-012
   44.2590750000000         3.840671237015577E-012
   44.3721250000000         4.236055026595119E-012
   44.4851750000000         4.654121416289599E-012
   44.5982250000000         5.083544783175949E-012
   44.7112750000000         5.511701265619785E-012
   44.8243250000000         5.925015262825996E-012
   44.9373750000000         6.309366364131230E-012
   45.0504250000000         6.650546226953068E-012
   45.1634750000000         6.934752358583396E-012
   45.2765250000000         7.149103497285077E-012
   45.3895750000000         7.282159440582165E-012
   45.5026250000000         7.324426750697218E-012
   45.6156750000000         7.268831080995051E-012
   45.7287250000000         7.111136798304784E-012
   45.8417750000000         6.850295223591434E-012
   45.9548250000000         6.488704197973724E-012
   46.0678750000000         6.032363786515369E-012
   46.1809250000000         5.490915842047994E-012
   46.2939750000000         4.877558470818316E-012
   46.4070250000000         4.208830563038874E-012
   46.5200750000000         3.504265930543319E-012
   46.6331250000000         2.785921246288151E-012
   46.7461750000000         2.077786846345061E-012
   46.8592250000000         1.405094232541578E-012
   46.9722750000000         7.935385896495960E-013
   47.0853250000000         2.684387862971667E-013
   47.1983750000000        -1.461391844723802E-013
   47.3114250000000        -4.282666310573268E-013
   47.4244750000000        -5.590138531506607E-013
   47.5375250000000        -5.232577357082905E-013
   47.6505750000000        -3.104041129343015E-013
   47.7636250000000         8.500483675095665E-014
   47.8766750000000         6.628252700492192E-013
   47.9897250000000         1.417011877307423E-012
   48.1027750000000         2.335502374689356E-012
   48.2158250000000         3.400299393187735E-012
   48.3288750000000         4.587756493344855E-012
   48.4419250000000         5.869068154442861E-012
   48.5549750000000         7.210956381687375E-012
   48.6680250000000         8.576539255380458E-012
   48.7810750000000         9.926359696833325E-012
   48.8941250000000         1.121954612304543E-011
   49.0071750000000         1.241507080916832E-011
   49.1202250000000         1.347306689801848E-011
   49.2332750000000         1.435616133857418E-011
   49.3463250000000         1.503077874823586E-011
   49.4593750000000         1.546837039397122E-011
   49.5724250000000         1.564652349270025E-011
   49.6854750000000         1.554990844703135E-011
   49.7985250000000         1.517102576267661E-011
   49.9115750000000         1.451072017006371E-011
   50.0246250000000         1.357843650327578E-011
   50.1376750000000         1.239220006124465E-011
   50.2507250000000         1.097831342719336E-011
   50.3637750000000         9.370771494310422E-012
   50.4768250000000         7.610406395524344E-012
   50.5898750000000         5.743784125544494E-012
   50.7029250000000         3.821884056488864E-012
   50.8159750000000         1.898601276213750E-012
   50.9290250000000         2.911918804460675E-014
   51.0420750000000        -1.731794213076943E-012
   51.1551250000000        -3.331508650475680E-012
   51.2681750000000        -4.721212598213896E-012
   51.3812250000000        -5.857492958601762E-012
   51.4942750000000        -6.703755479746937E-012
   51.6073250000000        -7.231432363535043E-012
   51.7203750000000        -7.420929976457334E-012
   51.8334250000000        -7.262278075248630E-012
   51.9464750000000        -6.755452119747928E-012
   52.0595250000000        -5.910351860568138E-012
   52.1725750000000        -4.746431971075210E-012
   52.2856250000000        -3.291993754803548E-012
   52.3986750000000        -1.583160126704732E-012
   52.5117250000000         3.374309603752444E-013
   52.6247750000000         2.422167553696721E-012
   52.7378250000000         4.620181654112869E-012
   52.8508750000000         6.879177749051731E-012
   52.9639250000000         9.147299325118765E-012
   53.0769750000000         1.137495702607506E-011
   53.1900250000000         1.351654130059657E-011
   53.3030750000000         1.553194461420655E-011
   53.4161250000000         1.738782372051604E-011
   53.5291750000000         1.905854092964301E-011
   53.6422250000000         2.052673456453570E-011
   53.7552750000000         2.178348281903930E-011
   53.8683250000000         2.282804129538158E-011
   53.9813750000000         2.366715224179689E-011
   54.0944250000000         2.431394238481949E-011
   54.2074750000000         2.478644550308979E-011
   54.3205250000000         2.510580472016873E-011
   54.4335750000000         2.529422730821344E-011
   54.5466250000000         2.537278069843852E-011
   54.6596750000000         2.535913167106695E-011
   54.7727250000000         2.526534074130015E-011
   54.8857750000000         2.509582975409998E-011
   54.9988250000000         2.484564240422405E-011
   55.1118750000000         2.449911422031327E-011
   55.2249250000000         2.402906035839851E-011
   55.3379750000000         2.339657627470522E-011
   55.4510250000000         2.255152813610156E-011
   55.5640750000000         2.143378693075442E-011
   55.6771250000000         1.997523314066852E-011
   55.7901750000000         1.810252846377711E-011
   55.9032250000000         1.574061801158323E-011
   56.0162750000000         1.281689165939613E-011
   56.1293250000000         9.265898365068975E-012
   56.2423750000000         5.034473084198164E-012
   56.3554250000000         8.710391638858723E-014
   56.4684750000000        -5.588661201494709E-012
   56.5815250000000        -1.197699250040591E-011
   56.6945750000000        -1.902898254836765E-011
   56.8076250000000        -2.665852807375708E-011
   56.9206750000000        -3.473914257776013E-011
   57.0337250000000        -4.310194527149809E-011
   57.1467750000000        -5.153505462398324E-011
   57.2598250000000        -5.978458760890624E-011
   57.3728750000000        -6.755742853304151E-011
   57.4859250000000        -7.452588460515139E-011
   57.5989750000000        -8.033428985751538E-011
   57.7120250000000        -8.460755575299122E-011
   57.8250750000000        -8.696159731111797E-011
   57.9381250000000        -8.701548954606772E-011
   58.0511750000000        -8.440513255149256E-011
   58.1642250000000        -7.879812711770494E-011
   58.2772750000000        -6.990948882525802E-011
   58.3903250000000        -5.751775960234113E-011
   58.5033750000000        -4.148101490531211E-011
   58.6164250000000        -2.175221451593340E-011
   58.7294750000000         1.606692070701867E-012
   58.8425250000000         2.841251588773476E-011
   58.9555750000000         5.835104785218887E-011
   59.0686250000000         9.097034448696164E-011
   59.1816750000000         1.256776400450092E-010
   59.2947250000000         1.617403861008512E-010
   59.4077750000000         1.982918391610197E-010
   59.5208250000000         2.343415149622674E-010
   59.6338750000000         2.687907062497974E-010
   59.7469250000000         3.004531212389889E-010
   59.8599750000000         3.280805450433843E-010
   59.9730250000000         3.503932596946960E-010
   60.0860750000000         3.661147842464375E-010
   60.1991250000000         3.740103193287082E-010
   60.3121750000000         3.729281057839705E-010
   60.4252250000000         3.618427401619762E-010
   60.5382750000000         3.398993367773217E-010
   60.6513250000000         3.064572926122601E-010
   60.7643750000000         2.611323034022946E-010
   60.8774250000000         2.038352022943834E-010
   60.9904750000000         1.348061516055051E-010
   61.1035250000000         5.464271787059525E-011
   61.2165750000000        -3.567959602444125E-011
   61.3296250000000        -1.347956975887861E-010
   61.4426750000000        -2.409493282983308E-010
   61.5557250000000        -3.520025759778940E-010
   61.6687750000000        -4.654572556369109E-010
   61.7818250000000        -5.784886626244125E-010
   61.8948750000000        -6.879918871313307E-010
   62.0079250000000        -7.906405314271664E-010
   62.1209750000000        -8.829572980283461E-010
   62.2340250000000        -9.613955273406033E-010
   62.3470750000000        -1.022430367218121E-009
   62.4601250000000        -1.062657865360184E-009
   62.5731750000000        -1.078899900480565E-009
   62.6862250000000        -1.068312521938968E-009
   62.7992750000000        -1.028494962532082E-009
   62.9123250000000        -9.575963376023464E-010
   63.0253750000000        -8.544168569001653E-010
   63.1384250000000        -7.185002645878873E-010
   63.2514750000000        -5.502141964377181E-010
   63.3645250000000        -3.508152088252934E-010
   63.4775750000000        -1.224953971416024E-010
   63.5906250000000         1.315922156378655E-010
   63.7036750000000         4.073319762868887E-010
   63.8167250000000         6.996695800575759E-010
   63.9297750000000         1.002663174249913E-009
   64.0428250000000         1.309562395571128E-009
   64.1558750000000         1.612915445258150E-009
   64.2689250000000         1.904703545503056E-009
   64.3819750000000         2.176501322276403E-009
   64.4950250000000         2.419660843309851E-009
   64.6080750000000         2.625516227494048E-009
   64.7211250000000         2.785604956460711E-009
   64.8341750000000         2.891901285036060E-009
   64.9472250000000         2.937056488250370E-009
   65.0602750000000         2.914640122743633E-009
   65.1733250000000         2.819376041929087E-009
   65.2863750000000         2.647366607327239E-009
   65.3994250000000         2.396298400864412E-009
   65.5124750000000         2.065622778635310E-009