 -0.847875000000000         4.569311467176330E-020
 -0.734825000000000         8.782449752522341E-018
 -0.621775000000000         5.952277727927215E-017
 -0.508725000000000         2.778097851975564E-016
 -0.395675000000000         1.046511258644943E-015
 -0.282625000000000         3.298691664834128E-015
 -0.169575000000000         8.824299057075617E-015
 -5.652500000000005E-002    2.023391782128972E-014
  5.652499999999994E-002    4.013261052433267E-014
  0.169575000000000         6.935676044892944E-014
  0.282625000000000         1.048706841960520E-013
  0.395675000000000         1.381148934261994E-013
  0.508725000000000         1.542757939311024E-013
  0.621775000000000         1.325915270751470E-013
  0.734825000000000         4.688677581110448E-014
  0.847875000000000        -1.336114951601340E-013
  0.960925000000000        -4.437949543139088E-013
   1.07397500000000        -9.216733929820466E-013
   1.18702500000000        -1.608034585692734E-012
   1.30007500000000        -2.545476007379386E-012
   1.41312500000000        -3.777428774369966E-012
   1.52617500000000        -5.347746092088385E-012
   1.63922500000000        -7.299563825654265E-012
   1.75227500000000        -9.673402063110869E-012
   1.86532500000000        -1.250761294020931E-011
   1.97837500000000        -1.583595319730201E-011
   2.09142500000000        -1.968747524374343E-011
   2.20447500000000        -2.408568649127326E-011
   2.31752500000000        -2.904610916309187E-011
   2.43057500000000        -3.457808091217446E-011
   2.54362500000000        -4.068072202785249E-011
   2.65667500000000        -4.734600378854128E-011
   2.76972500000000        -5.455544787619663E-011
   2.88277500000000        -6.228185013805276E-011
   2.99582500000000        -7.048890236364312E-011
   3.10887500000000        -7.913206892208221E-011
   3.22192500000000        -8.815578216959040E-011
   3.33497500000000        -9.750211593375976E-011
   3.44802500000000        -1.071022273396844E-010
   3.56107500000000        -1.168874789734159E-010
   3.67412500000000        -1.267811977212776E-010
   3.78717500000000        -1.367109355873111E-010
   3.90022500000000        -1.465998449113985E-010
   4.01327500000000        -1.563777081674897E-010
   4.12632500000000        -1.659792943479510E-010
   4.23937500000000        -1.753431924333056E-010
   4.35242500000000        -1.844200476566248E-010
   4.46547500000000        -1.931674363307754E-010
   4.57852500000000        -2.015586886911806E-010
   4.69157500000000        -2.095774972243421E-010
   4.80462500000000        -2.172201468523951E-010
   4.91767500000000        -2.244972505585265E-010
   5.03072500000000        -2.314316270745650E-010
   5.14377500000000        -2.380582027514143E-010
   5.25682500000000        -2.444223221228005E-010
   5.36987500000000        -2.505751210568440E-010
   5.48292500000000        -2.565749946272732E-010
   5.59597500000000        -2.624821603004541E-010
   5.70902500000000        -2.683554802756424E-010
   5.82207500000000        -2.742514088294533E-010
   5.93512500000000        -2.802159565735471E-010
   6.04817500000000        -2.862860866697645E-010
   6.16122500000000        -2.924829971876046E-010
   6.27427500000000        -2.988127028788527E-010
   6.38732500000000        -3.052632143179439E-010
   6.50037500000000        -3.118011729157637E-010
   6.61342500000000        -3.183729951380342E-010
   6.72647500000000        -3.249067967378716E-010
   6.83952500000000        -3.313116861653722E-010
   6.95257500000000        -3.374815472192442E-010
   7.06562500000000        -3.432981734195633E-010
   7.17867500000000        -3.486343330451164E-010
   7.29172500000000        -3.533615654790466E-010
   7.40477500000000        -3.573498967476340E-010
   7.51782500000000        -3.604826597200547E-010
   7.63087500000000        -3.626515415545793E-010
   7.74392500000000        -3.637681534314079E-010
   7.85697500000000        -3.637710868207748E-010
   7.97002500000000        -3.626197973582783E-010
   8.08307500000000        -3.603094453472279E-010
   8.19612500000000        -3.568668445651298E-010
   8.30917500000000        -3.523486370070591E-010
   8.42222500000000        -3.468454831822404E-010
   8.53527500000000        -3.404748245161268E-010
   8.64832500000000        -3.333814787843859E-010
   8.76137500000000        -3.257251156036396E-010
   8.87442500000000        -3.176851113461948E-010
   8.98747500000000        -3.094428861462005E-010
   9.10052500000000        -3.011771383137905E-010
   9.21357500000000        -2.930595955649703E-010
   9.32662500000000        -2.852440553516516E-010
   9.43967500000000        -2.778576805478280E-010
   9.55272500000000        -2.709993265230443E-010
   9.66577500000000        -2.647343232281200E-010
   9.77882500000000        -2.590876040771922E-010
   9.89187500000000        -2.540457228486170E-010
   10.0049250000000        -2.495563112043230E-010
   10.1179750000000        -2.455318413408115E-010
   10.2310250000000        -2.418535861114565E-010
   10.3440750000000        -2.383780077570786E-010
   10.4571250000000        -2.349438080037831E-010
   10.5701750000000        -2.313820202947769E-010
   10.6832250000000        -2.275247462408466E-010
   10.7962750000000        -2.232158283300717E-010
   10.9093250000000        -2.183175697402947E-010
   11.0223750000000        -2.127242917222794E-010
   11.1354250000000        -2.063629762149173E-010
   11.2484750000000        -1.992062613393825E-010
   11.3615250000000        -1.912685484482699E-010
   11.4745750000000        -1.826146027215256E-010
   11.5876250000000        -1.733500400749756E-010
   11.7006750000000        -1.636260576936644E-010
   11.8137250000000        -1.536277487937012E-010
   11.9267750000000        -1.435685163186798E-010
   12.0398250000000        -1.336810554429695E-010
   12.1528750000000        -1.242028234355915E-010
   12.2659250000000        -1.153692303457007E-010
   12.3789750000000        -1.073998515612432E-010
   12.4920250000000        -1.004833846819758E-010
   12.6050750000000        -9.477313984426293E-011
   12.7181250000000        -9.037633850384063E-011
   12.8311750000000        -8.734700897129663E-011
   12.9442250000000        -8.568071602916637E-011
   13.0572750000000        -8.531658214058863E-011
   13.1703250000000        -8.613528507426053E-011
   13.2833750000000        -8.796594210719806E-011
   13.3964250000000        -9.059172408206373E-011
   13.5094750000000        -9.375705347455628E-011
   13.6225250000000        -9.718315862739766E-011
   13.7355750000000        -1.005778940275939E-010
   13.8486250000000        -1.036468640147058E-010
   13.9616750000000        -1.061106940995302E-010
   14.0747250000000        -1.077146600773443E-010
   14.1877750000000        -1.082453558898012E-010
   14.3008250000000        -1.075294016660865E-010
   14.4138750000000        -1.054552669125904E-010
   14.5269250000000        -1.019675561181896E-010
   14.6399750000000        -9.707110820704177E-011
   14.7530250000000        -9.083691956664804E-011
   14.8660750000000        -8.339082470994140E-011
   14.9791250000000        -7.491025318853598E-011
   15.0921750000000        -6.561640268639209E-011
   15.2052250000000        -5.576343735557432E-011
   15.3182750000000        -4.562599328674381E-011
   15.4313250000000        -3.548963444770575E-011
   15.5443750000000        -2.563581843900750E-011
   15.6574250000000        -1.633274847409454E-011
   15.7704750000000        -7.821997043096176E-012
   15.8835250000000        -3.113837558855152E-013
   15.9965750000000         6.031454587710148E-012
   16.1096250000000         1.108475657883815E-011
   16.2226750000000         1.477460659589898E-011
   16.3357250000000         1.707485657270275E-011
   16.4487750000000         1.800258005030371E-011
   16.5618250000000         1.761899975978143E-011
   16.6748750000000         1.601704474281132E-011
   16.7879250000000         1.331473707250818E-011
   16.9009750000000         9.651426293552282E-012
   17.0140250000000         5.173760636406312E-012
   17.1270750000000         3.072197143503859E-014
   17.2401250000000        -5.635166481932441E-012
   17.3531750000000        -1.169434158675019E-011
   17.4662250000000        -1.803669584476555E-011
   17.5792750000000        -2.457115577893422E-011
   17.6923250000000        -3.123027319904874E-011
   17.8053750000000        -3.797120355825908E-011
   17.9184250000000        -4.476930883091063E-011
   18.0314750000000        -5.161865646725163E-011
   18.1445250000000        -5.852672183771561E-011
   18.2575750000000        -6.550697588119653E-011
   18.3706250000000        -7.257742027396008E-011
   18.4836750000000        -7.974961327386598E-011
   18.5967250000000        -8.702921339549806E-011
   18.7097750000000        -9.440595620892930E-011
   18.8228250000000        -1.018555708770433E-010
   18.9358750000000        -1.093332469007156E-010
   19.0489250000000        -1.167750482391058E-010
   19.1619750000000        -1.241025989828644E-010
   19.2750250000000        -1.312152410166858E-010
   19.3880750000000        -1.380074915241760E-010
   19.5011250000000        -1.443601685001120E-010
   19.6141750000000        -1.501548475804825E-010
   19.7272250000000        -1.552746189410047E-010
   19.8402750000000        -1.596132940837360E-010
   19.9533250000000        -1.630766655920108E-010
   20.0663750000000        -1.655895048935225E-010
   20.1794250000000        -1.670993994725664E-010
   20.2924750000000        -1.675762451888056E-010
   20.4055250000000        -1.670184431852764E-010
   20.5185750000000        -1.654457295940154E-010
   20.6316250000000        -1.629047745041903E-010
   20.7446750000000        -1.594605839641600E-010
   20.8577250000000        -1.551954874671936E-010
   20.9707750000000        -1.502051188716848E-010
   21.0838250000000        -1.445918820702456E-010
   21.1968750000000        -1.384620902433110E-010
   21.3099250000000        -1.319180087466669E-010
   21.4229750000000        -1.250574004553027E-010
   21.5360250000000        -1.179672649632773E-010
   21.6490750000000        -1.107258525971582E-010
   21.7621250000000        -1.033910160212636E-010
   21.8751750000000        -9.601477749984350E-011
   21.9882250000000        -8.863265378370879E-011
   22.1012750000000        -8.127097076592339E-011
   22.2143250000000        -7.394555895526156E-011
   22.3273750000000        -6.667044986193037E-011
   22.4404250000000        -5.945675339762743E-011
   22.5534750000000        -5.231840254229651E-011
   22.6665250000000        -4.527359337217789E-011
   22.7795750000000        -3.835019945597690E-011
   22.8926250000000        -3.158501647576731E-011
   23.0056750000000        -2.502506562565401E-011
   23.1187250000000        -1.872640288413911E-011
   23.2317750000000        -1.275825736357864E-011
   23.3448250000000        -7.191770108332126E-012
   23.4578750000000        -2.102623827646490E-012
   23.5709250000000         2.432990819181071E-012
   23.6839750000000         6.346540867373062E-012
   23.7970250000000         9.576289196908100E-012
   23.9100750000000         1.207803300557181E-011
   24.0231250000000         1.382509483092347E-011
   24.1361750000000         1.481237267298137E-011
   24.2492250000000         1.505688737545078E-011
   24.3622750000000         1.460527107385209E-011
   24.4753250000000         1.352556074242758E-011
   24.5883750000000         1.191065043271287E-011
   24.7014250000000         9.874191966057707E-012
   24.8144750000000         7.547588738051894E-012
   24.9275250000000         5.074730936267917E-012
   25.0405750000000         2.605974117051556E-012
   25.1536250000000         2.943761756197231E-013
   25.2666750000000        -1.712114777281206E-012
   25.3797250000000        -3.274010008930507E-012
   25.4927750000000        -4.264936890578784E-012
   25.6058250000000        -4.580049303025721E-012
   25.7188750000000        -4.131999583025059E-012
   25.8319250000000        -2.856681158254586E-012
   25.9449750000000        -7.120154054313553E-013
   26.0580250000000         2.323318761451433E-012
   26.1710750000000         6.251181455858700E-012
   26.2841250000000         1.105566757156464E-011
   26.3971750000000         1.671361442196077E-011
   26.5102250000000         2.319047986508200E-011
   26.6232750000000         3.044910060610479E-011
   26.7363250000000         3.845518288070857E-011
   26.8493750000000         4.717674521924796E-011
   26.9624250000000         5.658895053355759E-011
   27.0754750000000         6.667556514490652E-011
   27.1885250000000         7.743271135054111E-011
   27.3015750000000         8.885424118212692E-011
   27.4146250000000         1.009497663117238E-010
   27.5276750000000         1.137231247864324E-010
   27.6407250000000         1.271760013685538E-010
   27.7537750000000         1.413024047193340E-010
   27.8668250000000         1.560781570374072E-010
   27.9798750000000         1.714618500253067E-010
   28.0929250000000         1.873837947167897E-010
   28.2059750000000         2.037438680609945E-010
   28.3190250000000         2.204082114813869E-010
   28.4320750000000         2.372103019919307E-010
   28.5451250000000         2.539454333486220E-010
   28.6581750000000         2.703794686232577E-010
   28.7712250000000         2.862507169921559E-010
   28.8842750000000         3.012772863220932E-010
   28.9973250000000         3.151649560708467E-010
   29.1103750000000         3.276218081401365E-010
   29.2234250000000         3.383651453146938E-010
   29.3364750000000         3.471371133042187E-010
   29.4495250000000         3.537206598866729E-010
   29.5625750000000         3.579482518392991E-010
   29.6756250000000         3.597150401345459E-010
   29.7886750000000         3.589914649446852E-010
   29.9017250000000         3.558312354189801E-010
   30.0147750000000         3.503763806054371E-010
   30.1278250000000         3.428639870567893E-010
   30.2408750000000         3.336173707085326E-010
   30.3539250000000         3.230529196762557E-010
   30.4669750000000         3.116631203992243E-010
   30.5800250000000         3.000105486244742E-010
   30.6930750000000         2.887092457069794E-010
   30.8061250000000         2.784089379057923E-010
   30.9191750000000         2.697688539198741E-010
   31.0322250000000         2.634393692154207E-010
   31.1452750000000         2.600331655835706E-010
   31.2583250000000         2.601015906852530E-010
   31.3713750000000         2.641058070887796E-010
   31.4844250000000         2.723948500671695E-010
   31.5974750000000         2.851826825420340E-010
   31.7105250000000         3.025248131528016E-010
   31.8235750000000         3.243099627026207E-010
   31.9366250000000         3.502407633394255E-010
   32.0496750000000         3.798364139341714E-010
   32.1627250000000         4.124298430740209E-010
   32.2757750000000         4.471789863290027E-010
   32.3888250000000         4.830812778401439E-010
   32.5018750000000         5.189974964304259E-010
   32.6149250000000         5.536837276701234E-010
   32.7279750000000         5.858296860222233E-010
   32.8410250000000         6.140996040186188E-010
   32.9540750000000         6.371897442167939E-010
   33.0671250000000         6.538722016308901E-010
   33.1801750000000         6.630586102168515E-010
   33.2932250000000         6.638568146667173E-010
   33.4062750000000         6.556204387137714E-010
   33.5193250000000         6.380105548064776E-010
   33.6323750000000         6.110280956413148E-010
   33.7454250000000         5.750644812202044E-010
   33.8584750000000         5.309179989565946E-010
   33.9715250000000         4.798097562553321E-010
   34.0845750000000         4.233799690983986E-010
   34.1976250000000         3.636683871537387E-010
   34.3106750000000         3.030765427759144E-010
   34.4237250000000         2.443062346210027E-010
   34.5367750000000         1.902905506773709E-010
   34.6498250000000         1.440940604053248E-010
   34.7628750000000         1.088058082920926E-010
   34.8759250000000         8.741503810780902E-011
   34.9889750000000         8.267781959878796E-011
   35.1020250000000         9.697853183692211E-011
   35.2150750000000         1.321877032169132E-010
   35.3281250000000         1.895308360256463E-010
   35.4411750000000         2.694590363700702E-010
   35.5542250000000         3.715466881493158E-010
   35.6672750000000         4.944072447804391E-010
   35.7803250000000         6.356408867982425E-010
   35.8933750000000         7.918164640827294E-010
   36.0064250000000         9.584939495965525E-010
   36.1194750000000         1.130291238527691E-009
   36.2325250000000         1.300997074987246E-009
   36.3455750000000         1.463728440413008E-009
   36.4586250000000         1.611136518533542E-009
   36.5716750000000         1.735647174045243E-009
   36.6847250000000         1.829748835917508E-009
   36.7977750000000         1.886293448834859E-009
   36.9108250000000         1.898832767370912E-009
   37.0238750000000         1.861947860613208E-009
   37.1369250000000         1.771581248959508E-009
   37.2499750000000         1.625348682946824E-009
   37.3630250000000         1.422810369179327E-009
   37.4760750000000         1.165703735307525E-009
   37.5891250000000         8.581020503967272E-010
   37.7021750000000         5.065058866441824E-010
   37.8152250000000         1.198395990304505E-010
   37.9282750000000        -2.906428091512489E-010
   38.0413250000000        -7.115614170843952E-010
   38.1543750000000        -1.127707334125912E-009
   38.2674250000000        -1.522455752034542E-009
   38.3804750000000        -1.878265689704475E-009
   38.4935250000000        -2.177270868669766E-009
   38.6065750000000        -2.401939707849687E-009
   38.7196250000000        -2.535785208281146E-009
   38.8326750000000        -2.564108774595879E-009
   38.9457250000000        -2.474738409816056E-009
   39.0587750000000        -2.258748733577235E-009
   39.1718250000000        -1.911113026962840E-009
   39.2848750000000        -1.431273933352618E-009
   39.3979250000000        -8.235928274863759E-010
   39.5109750000000        -9.765170672361042E-011
   39.6240250000000         7.316172005322996E-010
   39.7370750000000         1.643999332972173E-009
   39.8501250000000         2.614261908002997E-009
   39.9631750000000         3.612648110284393E-009
   40.0762250000000         4.605574456359542E-009
   40.1892750000000         5.556543212601129E-009
   40.3023250000000         6.427237523409378E-009
   40.4153750000000         7.178790525098235E-009
   40.5284250000000         7.773178824910819E-009
   40.6414750000000         8.174698409707846E-009
   40.7545250000000         8.351490188886253E-009
   40.8675750000000         8.277045485330069E-009
   40.9806250000000         7.931634612247164E-009
   41.0936750000000         7.303610572425519E-009
   41.2067250000000         6.390511667013937E-009
   41.3197750000000         5.199922982755123E-009
   41.4328250000000         3.750031629669128E-009
   41.5458750000000         2.069842220944364E-009
   41.6589250000000         1.990095110673132E-010
   41.7719750000000        -1.812726744078304E-009
   41.8850250000000        -3.906519901267778E-009
   41.9980750000000        -6.015798936009610E-009
   42.1111250000000        -8.068035238879599E-009
   42.2241750000000        -9.986857240516876E-009
   42.3372250000000        -1.169446191576614E-008
   42.4502750000000        -1.311425583128550E-008
   42.5633250000000        -1.417364054053100E-008
   42.6763750000000        -1.480686768752602E-008
   42.7894250000000        -1.495784462458036E-008
   42.9024750000000        -1.458280245746646E-008
   43.0155250000000        -1.365271439255732E-008
   43.1285750000000        -1.215536222950065E-008
   43.2416250000000        -1.009695559327174E-008
   43.3546750000000        -7.503217170419782E-009
   43.4677250000000        -4.419860709883851E-009
   43.5807750000000        -9.124007997743473E-010
   43.6938250000000         2.934725167345958E-009
   43.8068750000000         7.019752529108455E-009
   43.9199250000000         1.122587939928466E-008
   44.0329750000000         1.542421487038357E-008
   44.1460250000000         1.947732394406049E-008
   44.2590750000000         2.324327706146983E-008
   44.3721250000000         2.658010157807659E-008
   44.4851750000000         2.935049087202437E-008
   44.5982250000000         3.142663634311999E-008
   44.7112750000000         3.269502073674840E-008
   44.8243250000000         3.306099702930235E-008
   44.9373750000000         3.245300693636671E-008
   45.0504250000000         3.082624846659758E-008
   45.1634750000000         2.816567529875120E-008
   45.2765250000000         2.448815379455619E-008
   45.3895750000000         1.984370860844127E-008
   45.5026250000000         1.431572618332515E-008
   45.6156750000000         8.020099687722807E-009
   45.7287250000000         1.103265280226420E-009
   45.8417750000000        -6.260829928833794E-009
   45.9548250000000        -1.387479376940014E-008
   46.0678750000000        -2.152279597566506E-008
   46.1809250000000        -2.897637632302628E-008
   46.2939750000000        -3.600091647794522E-008
   46.4070250000000        -4.236257752981276E-008
   46.5200750000000        -4.783550030057391E-008
   46.6331250000000        -5.220904839601716E-008
   46.7461750000000        -5.529485399907196E-008
   46.8592250000000        -5.693344090191607E-008
   46.9722750000000        -5.700020197914262E-008
   47.0853250000000        -5.541050054344130E-008
   47.1983750000000        -5.212374197037811E-008
   47.3114250000000        -4.714622030231298E-008
   47.4244750000000        -4.053264517739293E-008
   47.5375250000000        -3.238625398983968E-008
   47.6505750000000        -2.285747810903784E-008
   47.7636250000000        -1.214116632043899E-008
   47.8766750000000        -4.724375494552872E-010
   47.9897250000000         1.187874934415950E-008
   48.1027750000000         2.461414919152973E-008
   48.2158250000000         3.741472955588115E-008
   48.3288750000000         4.994888468643032E-008
   48.4419250000000         6.188113385502666E-008
   48.5549750000000         7.288102902226040E-008
   48.6680250000000         8.263200728307244E-008
   48.7810750000000         9.083991283838610E-008
   48.8941250000000         9.724094839185887E-008
   49.0071750000000         1.016087852083886E-007
   49.1202250000000         1.037606669242830E-007
   49.2332750000000         1.035622912302467E-007
   49.3463250000000         1.009313797842079E-007
   49.4593750000000         9.583983261345422E-008
   49.5724250000000         8.831444987804245E-008
   49.6854750000000         7.843623786090838E-008
   49.7985250000000         6.633838006933291E-008
   49.9115750000000         5.220298900482406E-008
   50.0246250000000         3.625680075167287E-008
   50.1376750000000         1.876601449143641E-008
   50.2507250000000         3.049427133451050E-011
   50.3637750000000        -1.962242725650731E-008
   50.4768250000000        -3.984430569252273E-008
   50.5898750000000        -6.027186440785190E-008
   50.7029250000000        -8.053299100426562E-008
   50.8159750000000        -1.002522594343505E-007
   50.9290250000000        -1.190558456443230E-007
   51.0420750000000        -1.365757347740982E-007
   51.1551250000000        -1.524531915148685E-007
   51.2681750000000        -1.663415137639752E-007
   51.3812250000000        -1.779081430895631E-007
   51.4942750000000        -1.868362858109209E-007
   51.6073250000000        -1.928262362429808E-007
   51.7203750000000        -1.955966225120888E-007
   51.8334250000000        -1.948858715991635E-007
   51.9464750000000        -1.904541691160901E-007
   52.0595250000000        -1.820861957458689E-007
   52.1725750000000        -1.695949302166662E-007
   52.2856250000000        -1.528267621547720E-007
   52.3986750000000        -1.316680572884545E-007
   52.5117250000000        -1.060533428141242E-007
   52.6247750000000        -7.597506046901375E-008
   52.7378250000000        -4.149484217245110E-008
   52.8508750000000        -2.756058015914095E-009
   52.9639250000000         4.000269424526722E-008
   53.0769750000000         8.643364525867788E-008
   53.1900250000000         1.360660577423481E-007
   53.3030750000000         1.882933075973526E-007
   53.4161250000000         2.423616758842030E-007
   53.5291750000000         2.973617561492357E-007
   53.6422250000000         3.522234452735162E-007
   53.7552750000000         4.057154976077621E-007
   53.8683250000000         4.564505946525256E-007
   53.9813750000000         5.028968191325091E-007
   54.0944250000000         5.433962974823638E-007
   54.2074750000000         5.761916296770877E-007
   54.3205250000000         5.994604682639409E-007
   54.4335750000000         6.113584004800827E-007
   54.5466250000000         6.100699339291436E-007
   54.6596750000000         5.938670879095223E-007
   54.7727250000000         5.611746909267110E-007
   54.8857750000000         5.106411225734219E-007
   54.9988250000000         4.412128563531456E-007
   55.1118750000000         3.522107564734875E-007
   55.2249250000000         2.434057650745785E-007
   55.3379750000000         1.150912721569413E-007
   55.4510250000000        -3.185075383247048E-008
   55.5640750000000        -1.958930121332784E-007
   55.6771250000000        -3.748186944605831E-007
   55.7901750000000        -5.656930745548241E-007
   55.9032250000000        -7.648539484877438E-007
   56.0162750000000        -9.679237260974316E-007
   56.1293250000000        -1.169845616857821E-006
   56.2423750000000        -1.364945844478587E-006
   56.3554250000000        -1.547023194939031E-006
   56.4684750000000        -1.709466434155489E-006
   56.5815250000000        -1.845399301727328E-006
   56.6945750000000        -1.947851821725999E-006
   56.8076250000000        -2.009955680492830E-006
   56.9206750000000        -2.025160363192641E-006
   57.0337250000000        -1.987465687715544E-006
   57.1467750000000        -1.891665360907473E-006
   57.2598250000000        -1.733595203928061E-006
   57.3728750000000        -1.510378847263282E-006
   57.4859250000000        -1.220662966404341E-006
   57.5989750000000        -8.648336023854167E-007
   57.7120250000000        -4.452047815990177E-007
   57.8250750000000         3.382942681801799E-008
   57.9381250000000         5.656880828658707E-007
   58.0511750000000         1.141549937561324E-006
   58.1642250000000         1.750360767229881E-006
   58.2772750000000         2.378907728326336E-006
   58.3903250000000         3.011965572862699E-006
   58.5033750000000         3.632517859317747E-006
   58.6164250000000         4.222054294148085E-006
   58.7294750000000         4.760943164352008E-006
   58.8425250000000         5.228875427856857E-006
   58.9555750000000         5.605374494215405E-006
   59.0686250000000         5.870363227195093E-006
   59.1816750000000         6.004777086921412E-006
   59.2947250000000         5.991209931427121E-006
   59.4077750000000         5.814576728887543E-006
   59.5208250000000         5.462775403118678E-006
   59.6338750000000         4.927328442153958E-006
   59.7469250000000         4.203983654197156E-006
   59.8599750000000         3.293252763548891E-006
   59.9730250000000         2.200866415252646E-006
   60.0860750000000         9.381246614782226E-007
   60.1991250000000        -4.778768640468936E-007
   60.3121750000000        -2.024162999491939E-006
   60.4252250000000        -3.671952730198330E-006
   60.5382750000000        -5.386902699700862E-006
   60.6513250000000        -7.129528894700252E-006
   60.7643750000000        -8.855810488473075E-006
   60.8774250000000        -1.051797492926480E-005
   60.9904750000000        -1.206545809263157E-005
   61.1035250000000        -1.344602782214307E-005
   61.2165750000000        -1.460705356268784E-005
   61.3296250000000        -1.549689916577081E-005
   61.4426750000000        -1.606641064925091E-005
   61.5557250000000        -1.627046560894571E-005
   61.6687750000000        -1.606954662551660E-005
   61.7818250000000        -1.543129723397956E-005
   61.8948750000000        -1.433201621903784E-005
   62.0079250000000        -1.275804420260771E-005
   62.1209750000000        -1.070699584726924E-005
   62.2340250000000        -8.188791623585201E-006
   62.3470750000000        -5.226445070491379E-006
   62.4601250000000        -1.856564796662069E-006
   62.5731750000000         1.870464765104462E-006
   62.6862250000000         5.890653827936102E-006
   62.7992750000000         1.012695148843804E-005
   62.9123250000000         1.449017789387701E-005
   63.0253750000000         1.888034891104516E-005
   63.1384250000000         2.318838768125755E-005
   63.2514750000000         2.729820653621968E-005
   63.3645250000000         3.108913169112557E-005
   63.4775750000000         3.443863191949049E-005
   63.5906250000000         3.722530166574525E-005
   63.7036750000000         3.933203877786939E-005
   63.8167250000000         4.064934782471033E-005
   63.9297750000000         4.107869195367096E-005
   64.0428250000000         4.053580979384287E-005
   64.1558750000000         3.895390931588404E-005
   64.2689250000000         3.628664801833806E-005
   64.3819750000000         3.251080853262558E-005
   64.4950250000000         2.762858085475296E-005
   64.6080750000000         2.166936706756223E-005
   64.7211250000000         1.469103146221177E-005
   64.8341750000000         6.780528631779899E-006
   64.9472250000000        -1.946146081090249E-006
   65.0602750000000        -1.134472527263828E-005
   65.1733250000000        -2.124418295194789E-005
   65.2863750000000        -3.144900091788457E-005
   65.3994250000000        -4.174217756949742E-005
   65.5124750000000        -5.188894929681155E-005