 -0.847875000000000        -1.303028802885172E-025
 -0.734825000000000         1.362765208907421E-019
 -0.621775000000000         9.574753936158233E-019
 -0.508725000000000         4.599812598651840E-018
 -0.395675000000000         1.781732871187598E-017
 -0.282625000000000         5.798692451590514E-017
 -0.169575000000000         1.615304497047411E-016
 -5.652500000000005E-002    3.908465106742436E-016
  5.652499999999994E-002    8.338146326741750E-016
  0.169575000000000         1.593079371137323E-015
  0.282625000000000         2.770456872970590E-015
  0.395675000000000         4.455209685821942E-015
  0.508725000000000         6.720896443303537E-015
  0.621775000000000         9.628916313282021E-015
  0.734825000000000         1.323265537946321E-014
  0.847875000000000         1.757710044739435E-014
  0.960925000000000         2.269597248316386E-014
   1.07397500000000         2.860771062417621E-014
   1.18702500000000         3.530668854214842E-014
   1.30007500000000         4.275609771130888E-014
   1.41312500000000         5.088218618520065E-014
   1.52617500000000         5.956745630512568E-014
   1.63922500000000         6.864346903636386E-014
   1.75227500000000         7.789078518372115E-014
   1.86532500000000         8.703364133085771E-014
   1.97837500000000         9.574077247677244E-014
   2.09142500000000         1.036261812491851E-013
   2.20447500000000         1.102504235461102E-013
   2.31752500000000         1.151431900949857E-013
   2.43057500000000         1.177819899024332E-013
   2.54362500000000         1.176359603895988E-013
   2.65667500000000         1.141762365572432E-013
   2.76972500000000         1.068574585650990E-013
   2.88277500000000         9.519117268158769E-014
   2.99582500000000         7.871113997795486E-014
   3.10887500000000         5.703680370709838E-014
   3.22192500000000         2.984411666940583E-014
   3.33497500000000        -3.058808899118838E-015
   3.44802500000000        -4.178131203067314E-014
   3.56107500000000        -8.629299639901074E-014
   3.67412500000000        -1.364362421076763E-013
   3.78717500000000        -1.919147057358766E-013
   3.90022500000000        -2.523129310486237E-013
   4.01327500000000        -3.170837912607404E-013
   4.12632500000000        -3.855800815831143E-013
   4.23937500000000        -4.570449941933312E-013
   4.35242500000000        -5.306719175275312E-013
   4.46547500000000        -6.055869503797456E-013
   4.57852500000000        -6.809163125246070E-013
   4.69157500000000        -7.557817700602157E-013
   4.80462500000000        -8.293748391687337E-013
   4.91767500000000        -9.009372281037267E-013
   5.03072500000000        -9.697855912673466E-013
   5.14377500000000        -1.035377823786822E-012
   5.25682500000000        -1.097307870455880E-012
   5.36987500000000        -1.155286176650692E-012
   5.48292500000000        -1.209180465810829E-012
   5.59597500000000        -1.258996745172331E-012
   5.70902500000000        -1.304863035844174E-012
   5.82207500000000        -1.347030392799069E-012
   5.93512500000000        -1.385810452399821E-012
   6.04817500000000        -1.421584543846454E-012
   6.16122500000000        -1.454751450584160E-012
   6.27427500000000        -1.485688754555153E-012
   6.38732500000000        -1.514734996047899E-012
   6.50037500000000        -1.542142373015440E-012
   6.61342500000000        -1.568028399179976E-012
   6.72647500000000        -1.592413498961009E-012
   6.83952500000000        -1.615141305636131E-012
   6.95257500000000        -1.635898190264083E-012
   7.06562500000000        -1.654227329542701E-012
   7.17867500000000        -1.669516376081837E-012
   7.29172500000000        -1.681029862036640E-012
   7.40477500000000        -1.687933045921055E-012
   7.51782500000000        -1.689363901602955E-012
   7.63087500000000        -1.684413686709122E-012
   7.74392500000000        -1.672224637171092E-012
   7.85697500000000        -1.652055031549084E-012
   7.97002500000000        -1.623228406550802E-012
   8.08307500000000        -1.585311823900267E-012
   8.19612500000000        -1.538056385232100E-012
   8.30917500000000        -1.481458961184463E-012
   8.42222500000000        -1.415770196821532E-012
   8.53527500000000        -1.341532184340362E-012
   8.64832500000000        -1.259524588923013E-012
   8.76137500000000        -1.170766286592154E-012
   8.87442500000000        -1.076504873645697E-012
   8.98747500000000        -9.781416753021960E-013
   9.10052500000000        -8.771755974355925E-013
   9.21357500000000        -7.751728208934366E-013
   9.32662500000000        -6.736846032922630E-013
   9.43967500000000        -5.741766220592278E-013
   9.55272500000000        -4.779816708068581E-013
   9.66577500000000        -3.862405546637000E-013
   9.77882500000000        -2.998697207927989E-013
   9.89187500000000        -2.194543042501631E-013
   10.0049250000000        -1.453418957141145E-013
   10.1179750000000        -7.754342545359460E-014
   10.2310250000000        -1.579285361764221E-014
   10.3440750000000         4.045969740394133E-014
   10.4571250000000         9.198285908252057E-014
   10.5701750000000         1.397197506749882E-013
   10.6832250000000         1.847600822046973E-013
   10.7962750000000         2.281885329282307E-013
   10.9093250000000         2.711194727170717E-013
   11.0223750000000         3.145242611288963E-013
   11.1354250000000         3.592630348707097E-013
   11.2484750000000         4.059515758377830E-013
   11.3615250000000         4.549634450500417E-013
   11.4745750000000         5.063764240989353E-013
   11.5876250000000         5.600056290176963E-013
   11.7006750000000         6.153318265358984E-013
   11.8137250000000         6.716191110916879E-013
   11.9267750000000         7.278719904719077E-013
   12.0398250000000         7.829723225915186E-013
   12.1528750000000         8.356680742976540E-013
   12.2659250000000         8.847321105842615E-013
   12.3789750000000         9.289641044281243E-013
   12.4920250000000         9.673701420259779E-013
   12.6050750000000         9.991427234328888E-013
   12.7181250000000         1.023786102907187E-012
   12.8311750000000         1.041154516679226E-012
   12.9442250000000         1.051506643330983E-012
   13.0572750000000         1.055493578045831E-012
   13.1703250000000         1.054178935227731E-012
   13.2833750000000         1.049005442799820E-012
   13.3964250000000         1.041744948445320E-012
   13.5094750000000         1.034455157375517E-012
   13.6225250000000         1.029359550904654E-012
   13.7355750000000         1.028779394090708E-012
   13.8486250000000         1.035032802832578E-012
   13.9616750000000         1.050292652229136E-012
   14.0747250000000         1.076536360651694E-012
   14.1877750000000         1.115404388314893E-012
   14.3008250000000         1.168131791959989E-012
   14.4138750000000         1.235487626951113E-012
   14.5269250000000         1.317702150522911E-012
   14.6399750000000         1.414492940711911E-012
   14.7530250000000         1.524994410126742E-012
   14.8660750000000         1.647855553548007E-012
   14.9791250000000         1.781199396931136E-012
   15.0921750000000         1.922800602275433E-012
   15.2052250000000         2.070067301533176E-012
   15.3182750000000         2.220224499208592E-012
   15.4313250000000         2.370345606739653E-012
   15.5443750000000         2.517539601364723E-012
   15.6574250000000         2.658985500331408E-012
   15.7704750000000         2.792129684966563E-012
   15.8835250000000         2.914650585174907E-012
   15.9965750000000         3.024668712851589E-012
   16.1096250000000         3.120670589931380E-012
   16.2226750000000         3.201641930883431E-012
   16.3357250000000         3.267044720071265E-012
   16.4487750000000         3.316788942856233E-012
   16.5618250000000         3.351219091481402E-012
   16.6748750000000         3.371063020904812E-012
   16.7879250000000         3.377346274757423E-012
   16.9009750000000         3.371354961838139E-012
   17.0140250000000         3.354520426254291E-012
   17.1270750000000         3.328348377256282E-012
   17.2401250000000         3.294346236696425E-012
   17.3531750000000         3.253922965530893E-012
   17.4662250000000         3.208357200479275E-012
   17.5792750000000         3.158731747228988E-012
   17.6923250000000         3.105918455576540E-012
   17.8053750000000         3.050540178169851E-012
   17.9184250000000         2.993005652465959E-012
   18.0314750000000         2.933498638434612E-012
   18.1445250000000         2.872048707758236E-012
   18.2575750000000         2.808525668778035E-012
   18.3706250000000         2.742757369717178E-012
   18.4836750000000         2.674534848782102E-012
   18.5967250000000         2.603704492180409E-012
   18.7097750000000         2.530225438195981E-012
   18.8228250000000         2.454185752821562E-012
   18.9358750000000         2.375881985005563E-012
   19.0489250000000         2.295838591434821E-012
   19.1619750000000         2.214753703003793E-012
   19.2750250000000         2.133645557402637E-012
   19.3880750000000         2.053649517516840E-012
   19.5011250000000         1.976143497243908E-012
   19.6141750000000         1.902601456547073E-012
   19.7272250000000         1.834597159389576E-012
   19.8402750000000         1.773695227757574E-012
   19.9533250000000         1.721449605503691E-012
   20.0663750000000         1.679276027577729E-012
   20.1794250000000         1.648437556838400E-012
   20.2924750000000         1.629961286064437E-012
   20.4055250000000         1.624595740480944E-012
   20.5185750000000         1.632830674065301E-012
   20.6316250000000         1.654781295438068E-012
   20.7446750000000         1.690275192286886E-012
   20.8577250000000         1.738811108119358E-012
   20.9707750000000         1.799578928629487E-012
   21.0838250000000         1.871527390236447E-012
   21.1968750000000         1.953353095748337E-012
   21.3099250000000         2.043599402447674E-012
   21.4229750000000         2.140683274820442E-012
   21.5360250000000         2.242950401567906E-012
   21.6490750000000         2.348728463983041E-012
   21.7621250000000         2.456412685238538E-012
   21.8751750000000         2.564431391996253E-012
   21.9882250000000         2.671362643787359E-012
   22.1012750000000         2.775914625810915E-012
   22.2143250000000         2.876975031427267E-012
   22.3273750000000         2.973594773705837E-012
   22.4404250000000         3.065004818933576E-012
   22.5534750000000         3.150608263725733E-012
   22.6665250000000         3.229965328994315E-012
   22.7795750000000         3.302795286631488E-012
   22.8926250000000         3.368919047589581E-012
   23.0056750000000         3.428283878913019E-012
   23.1187250000000         3.480929465583664E-012
   23.2317750000000         3.526948704752623E-012
   23.3448250000000         3.566504039113727E-012
   23.4578750000000         3.599823749639103E-012
   23.5709250000000         3.627152082803356E-012
   23.6839750000000         3.648808181054537E-012
   23.7970250000000         3.665127670381472E-012
   23.9100750000000         3.676511050818591E-012
   24.0231250000000         3.683429898247231E-012
   24.1361750000000         3.686392234951666E-012
   24.2492250000000         3.685989824092970E-012
   24.3622750000000         3.682888846391733E-012
   24.4753250000000         3.677828850779586E-012
   24.5883750000000         3.671607427398002E-012
   24.7014250000000         3.665112623346946E-012
   24.8144750000000         3.659261203324895E-012
   24.9275250000000         3.655025990464508E-012
   25.0405750000000         3.653369357693872E-012
   25.1536250000000         3.655284142638789E-012
   25.2666750000000         3.661715848386395E-012
   25.3797250000000         3.673563434978049E-012
   25.4927750000000         3.691665088705143E-012
   25.6058250000000         3.716741301896332E-012
   25.7188750000000         3.749417715383915E-012
   25.8319250000000         3.790192433112068E-012
   25.9449750000000         3.839431311535634E-012
   26.0580250000000         3.897364856897378E-012
   26.1710750000000         3.964094427556852E-012
   26.2841250000000         4.039577691851499E-012
   26.3971750000000         4.123681911518686E-012
   26.5102250000000         4.216159329513247E-012
   26.6232750000000         4.316683066796047E-012
   26.7363250000000         4.424861630587100E-012
   26.8493750000000         4.540256965799933E-012
   26.9624250000000         4.662371386095249E-012
   27.0754750000000         4.790716476907934E-012
   27.1885250000000         4.924796871623472E-012
   27.3015750000000         5.064054012757519E-012
   27.4146250000000         5.207987308257412E-012
   27.5276750000000         5.356039686674089E-012
   27.6407250000000         5.507646112397325E-012
   27.7537750000000         5.662212816796478E-012
   27.8668250000000         5.819100959134249E-012
   27.9798750000000         5.977617875174304E-012
   28.0929250000000         6.137007721944113E-012
   28.2059750000000         6.296436872182171E-012
   28.3190250000000         6.454990925355825E-012
   28.4320750000000         6.611696494591518E-012
   28.5451250000000         6.765496420979622E-012
   28.6581750000000         6.915280100125712E-012
   28.7712250000000         7.059905970316509E-012
   28.8842750000000         7.198219785881530E-012
   28.9973250000000         7.329086977950008E-012
   29.1103750000000         7.451435849054256E-012
   29.2234250000000         7.564288795295609E-012
   29.3364750000000         7.666788446959924E-012
   29.4495250000000         7.758259555422577E-012
   29.5625750000000         7.838228368999706E-012
   29.6756250000000         7.906435504536547E-012
   29.7886750000000         7.962882122475063E-012
   29.9017250000000         8.007832387116674E-012
   30.0147750000000         8.041807097463900E-012
   30.1278250000000         8.065580608333036E-012
   30.2408750000000         8.080165825861325E-012
   30.3539250000000         8.086786768290339E-012
   30.4669750000000         8.086833040769086E-012
   30.5800250000000         8.081823237627107E-012
   30.6930750000000         8.073357027668597E-012
   30.8061250000000         8.063063954325275E-012
   30.9191750000000         8.052526224421036E-012
   31.0322250000000         8.043264254673273E-012
   31.1452750000000         8.036664855931993E-012
   31.2583250000000         8.033951894713662E-012
   31.3713750000000         8.036127295750646E-012
   31.4844250000000         8.043975577968967E-012
   31.5974750000000         8.058049748367735E-012
   31.7105250000000         8.078625887185889E-012
   31.8235750000000         8.105766176056682E-012
   31.9366250000000         8.139280959536206E-012
   32.0496750000000         8.178794757471887E-012
   32.1627250000000         8.223754208965411E-012
   32.2757750000000         8.273475424702682E-012
   32.3888250000000         8.327176597862393E-012
   32.5018750000000         8.384016917929154E-012
   32.6149250000000         8.443143709131652E-012
   32.7279750000000         8.503737398384113E-012
   32.8410250000000         8.565008825372189E-012
   32.9540750000000         8.626266418961098E-012
   33.0671250000000         8.686906730978163E-012
   33.1801750000000         8.746439478047102E-012
   33.2932250000000         8.804478335728747E-012
   33.4062750000000         8.860745132882325E-012
   33.5193250000000         8.915060575550181E-012
   33.6323750000000         8.967314497748241E-012
   33.7454250000000         9.017464087721940E-012
   33.8584750000000         9.065493806462562E-012
   33.9715250000000         9.111411789489559E-012
   34.0845750000000         9.155190863754209E-012
   34.1976250000000         9.196806203399359E-012
   34.3106750000000         9.236166930695082E-012
   34.4237250000000         9.273121099966479E-012
   34.5367750000000         9.307475846132922E-012
   34.6498250000000         9.338959767481589E-012
   34.7628750000000         9.367274781609598E-012
   34.8759250000000         9.392054770531904E-012
   34.9889750000000         9.412937977012542E-012
   35.1020250000000         9.429581255803847E-012
   35.2150750000000         9.441648220865961E-012
   35.3281250000000         9.448883310256071E-012
   35.4411750000000         9.451109453581847E-012
   35.5542250000000         9.448260888532696E-012
   35.6672750000000         9.440433271863745E-012
   35.7803250000000         9.427846635417062E-012
   35.8933750000000         9.410920840879829E-012
   36.0064250000000         9.390225393037518E-012
   36.1194750000000         9.366512373897814E-012
   36.2325250000000         9.340694971827867E-012
   36.3455750000000         9.313836959826230E-012
   36.4586250000000         9.287118784719897E-012
   36.5716750000000         9.261808203117908E-012
   36.6847250000000         9.239267104482374E-012
   36.7977750000000         9.220830157486223E-012
   36.9108250000000         9.207849229217375E-012
   37.0238750000000         9.201595302937418E-012
   37.1369250000000         9.203241395422793E-012
   37.2499750000000         9.213822528230578E-012
   37.3630250000000         9.234197156674848E-012
   37.4760750000000         9.265005383176534E-012
   37.5891250000000         9.306673256482534E-012
   37.7021750000000         9.359361985078115E-012
   37.8152250000000         9.422988930049290E-012
   37.9282750000000         9.497217427890676E-012
   38.0413250000000         9.581427011904020E-012
   38.1543750000000         9.674813239958297E-012
   38.2674250000000         9.776315584504429E-012
   38.3804750000000         9.884726605265625E-012
   38.4935250000000         9.998662807064319E-012
   38.6065750000000         1.011665163471930E-011
   38.7196250000000         1.023717375580932E-011
   38.8326750000000         1.035866252297064E-011
   38.9457250000000         1.047962128633285E-011
   39.0587750000000         1.059859736591323E-011
   39.1718250000000         1.071427914414665E-011
   39.2848750000000         1.082551203243881E-011
   39.3979250000000         1.093134223164443E-011
   39.5109750000000         1.103101447358555E-011
   39.6240250000000         1.112401062145222E-011
   39.7370750000000         1.121010056756221E-011
   39.8501250000000         1.128925562434269E-011
   39.9631750000000         1.136172835719798E-011
   40.0762250000000         1.142799640540391E-011
   40.1892750000000         1.148873977649646E-011
   40.3023250000000         1.154480587535751E-011
   40.4153750000000         1.159720527669875E-011
   40.5284250000000         1.164705016106225E-011
   40.6414750000000         1.169551679512652E-011
   40.7545250000000         1.174379361684868E-011
   40.8675750000000         1.179305984378843E-011
   40.9806250000000         1.184443055389899E-011
   41.0936750000000         1.189890621961489E-011
   41.2067250000000         1.195738679741430E-011
   41.3197750000000         1.202060758434432E-011
   41.4328250000000         1.208912234736146E-011
   41.5458750000000         1.216332628308603E-011
   41.6589250000000         1.224342050358132E-011
   41.7719750000000         1.232943416017877E-011
   41.8850250000000         1.242125017131535E-011
   41.9980750000000         1.251859161146680E-011
   42.1111250000000         1.262108503730941E-011
   42.2241750000000         1.272825170368227E-011
   42.3372250000000         1.283957247876053E-011
   42.4502750000000         1.295448999159625E-011
   42.5633250000000         1.307246490969092E-011
   42.6763750000000         1.319297332375709E-011
   42.7894250000000         1.331555554084274E-011
   42.9024750000000         1.343979673707316E-011
   43.0155250000000         1.356538305846498E-011
   43.1285750000000         1.369206634717160E-011
   43.2416250000000         1.381968319199720E-011
   43.3546750000000         1.394812755914353E-011
   43.4677250000000         1.407733215392249E-011
   43.5807750000000         1.420728169352712E-011
   43.6938250000000         1.433795009740414E-011
   43.8068750000000         1.446929992775192E-011
   43.9199250000000         1.460124109873726E-011
   44.0329750000000         1.473362952683942E-011
   44.1460250000000         1.486622691990707E-011
   44.2590750000000         1.499868924726524E-011
   44.3721250000000         1.513058610789160E-011
   44.4851750000000         1.526135354935826E-011
   44.5982250000000         1.539034975982849E-011
   44.7112750000000         1.551684195366836E-011
   44.8243250000000         1.564000580977248E-011
   44.9373750000000         1.575902077038747E-011
   45.0504250000000         1.587302541565140E-011
   45.1634750000000         1.598121250085382E-011
   45.2765250000000         1.608279593859148E-011
   45.3895750000000         1.617714198014758E-011
   45.5026250000000         1.626369337546548E-011
   45.6156750000000         1.634209618975874E-011
   45.7287250000000         1.641212055282350E-011
   45.8417750000000         1.647378405689941E-011
   45.9548250000000         1.652726145826662E-011
   46.0678750000000         1.657293297083506E-011
   46.1809250000000         1.661136508779983E-011
   46.2939750000000         1.664325929783695E-011
   46.4070250000000         1.666946002900580E-011
   46.5200750000000         1.669091104233474E-011
   46.6331250000000         1.670860019036140E-011
   46.7461750000000         1.672352469481759E-011
   46.8592250000000         1.673667142382857E-011
   46.9722750000000         1.674892657608451E-011
   47.0853250000000         1.676110903745941E-011
   47.1983750000000         1.677387881385571E-011
   47.3114250000000         1.678775179999041E-011
   47.4244750000000         1.680307996568397E-011
   47.5375250000000         1.682003659842567E-011
   47.6505750000000         1.683862795414973E-011
   47.7636250000000         1.685873110391554E-011
   47.8766750000000         1.688008460492699E-011
   47.9897250000000         1.690233164990245E-011
   48.1027750000000         1.692506163379336E-011
   48.2158250000000         1.694785268918095E-011
   48.3288750000000         1.697029578576083E-011
   48.4419250000000         1.699203958420643E-011
   48.5549750000000         1.701284516229731E-011
   48.6680250000000         1.703258975518348E-011
   48.7810750000000         1.705130036576419E-011
   48.8941250000000         1.706917128843243E-011
   49.0071750000000         1.708655578328181E-011
   49.1202250000000         1.710396644539477E-011
   49.2332750000000         1.712207685427231E-011
   49.3463250000000         1.714167493238842E-011
   49.4593750000000         1.716360894493708E-011
   49.5724250000000         1.718881704341400E-011
   49.6854750000000         1.721822237653580E-011
   49.7985250000000         1.725270258919426E-011
   49.9115750000000         1.729305709909929E-011
   50.0246250000000         1.733997644822383E-011
   50.1376750000000         1.739394890031451E-011
   50.2507250000000         1.745529054465878E-011
   50.3637750000000         1.752409815861534E-011
   50.4768250000000         1.760022590714287E-011
   50.5898750000000         1.768331506931496E-011
   50.7029250000000         1.777275489689523E-011
   50.8159750000000         1.786775322426666E-011
   50.9290250000000         1.796731254323534E-011
   51.0420750000000         1.807030179353198E-011
   51.1551250000000         1.817550934219099E-011
   51.2681750000000         1.828162911069321E-011
   51.3812250000000         1.838738899939286E-011
   51.4942750000000         1.849154008424065E-011
   51.6073250000000         1.859293480651200E-011
   51.7203750000000         1.869055528302171E-011
   51.8334250000000         1.878357111718284E-011
   51.9464750000000         1.887132215029773E-011
   52.0595250000000         1.895339100731237E-011
   52.1725750000000         1.902960478959694E-011
   52.2856250000000         1.909997676129345E-011
   52.3986750000000         1.916480494353712E-011
   52.5117250000000         1.922452495343166E-011
   52.6247750000000         1.927977825955455E-011
   52.7378250000000         1.933134689248445E-011
   52.8508750000000         1.938009970669839E-011
   52.9639250000000         1.942696812152793E-011
   53.0769750000000         1.947289382350864E-011
   53.1900250000000         1.951880092650935E-011
   53.3030750000000         1.956551565547385E-011
   53.4161250000000         1.961378574667999E-011
   53.5291750000000         1.966422074460757E-011
   53.6422250000000         1.971725838433772E-011
   53.7552750000000         1.977318940709178E-011
   53.8683250000000         1.983212754110418E-011
   53.9813750000000         1.989402804743464E-011
   54.0944250000000         1.995867293322329E-011
   54.2074750000000         2.002574889998590E-011
   54.3205250000000         2.009481385310476E-011
   54.4335750000000         2.016538309307680E-011
   54.5466250000000         2.023691531792709E-011
   54.6596750000000         2.030888833810052E-011
   54.7727250000000         2.038083234814379E-011
   54.8857750000000         2.045234019671437E-011
   54.9988250000000         2.052313024485334E-011
   55.1118750000000         2.059304208291435E-011
   55.2249250000000         2.066208063703769E-011
   55.3379750000000         2.073038656763128E-011
   55.4510250000000         2.079827932118351E-011
   55.5640750000000         2.086623757649860E-011
   55.6771250000000         2.093484538974880E-011
   55.7901750000000         2.100480867683810E-011
   55.9032250000000         2.107693247033616E-011
   56.0162750000000         2.115200893570373E-011
   56.1293250000000         2.123086374050552E-011
   56.2423750000000         2.131425916469521E-011
   56.3554250000000         2.140287952294178E-011
   56.4684750000000         2.149727180767688E-011
   56.5815250000000         2.159780365089103E-011
   56.6945750000000         2.170466957797163E-011
   56.8076250000000         2.181784494055689E-011
   56.9206750000000         2.193706969475942E-011
   57.0337250000000         2.206185638272155E-011
   57.1467750000000         2.219150925961398E-011
   57.2598250000000         2.232512424121262E-011
   57.3728750000000         2.246163069977812E-011
   57.4859250000000         2.259981756524591E-011
   57.5989750000000         2.273838914070591E-011
   57.7120250000000         2.287601274268642E-011
   57.8250750000000         2.301135140776737E-011
   57.9381250000000         2.314312420979984E-011
   58.0511750000000         2.327016900749437E-011
   58.1642250000000         2.339147754201389E-011
   58.2772750000000         2.350619313519118E-011
   58.3903250000000         2.361369220395670E-011
   58.5033750000000         2.371357957381347E-011
   58.6164250000000         2.380568164815312E-011
   58.7294750000000         2.389003704339321E-011
   58.8425250000000         2.396692019835372E-011
   58.9555750000000         2.403673783053189E-011
   59.0686250000000         2.410007052381625E-011
   59.1816750000000         2.415759275787261E-011
   59.2947250000000         2.420999774027153E-011
   59.4077750000000         2.425799958768954E-011
   59.5208250000000         2.430226044649023E-011
   59.6338750000000         2.434331874573728E-011
   59.7469250000000         2.438160231390848E-011
   59.8599750000000         2.441737150708386E-011
   59.9730250000000         2.445068751886479E-011
   60.0860750000000         2.448144083907674E-011
   60.1991250000000         2.450933028415829E-011
   60.3121750000000         2.453389317856151E-011
   60.4252250000000         2.455454663051832E-011
   60.5382750000000         2.457061064274605E-011
   60.6513250000000         2.458137063453228E-011
   60.7643750000000         2.458614612257290E-011
   60.8774250000000         2.458433490110263E-011
   60.9904750000000         2.457547827389682E-011
   61.1035250000000         2.455932881147674E-011
   61.2165750000000         2.453586972627398E-011
   61.3296250000000         2.450540952090399E-011
   61.4426750000000         2.446853325377836E-011
   61.5557250000000         2.442620232934650E-011
   61.6687750000000         2.437968757710758E-011
   61.7818250000000         2.433057911191375E-011
   61.8948750000000         2.428075899872653E-011
   62.0079250000000         2.423232608112296E-011
   62.1209750000000         2.418756934726755E-011
   62.2340250000000         2.414888968225210E-011
   62.3470750000000         2.411871620322638E-011
   62.4601250000000         2.409944195191430E-011
   62.5731750000000         2.409331475429027E-011
   62.6862250000000         2.410241439843632E-011
   62.7992750000000         2.412855197843569E-011
   62.9123250000000         2.417321704696209E-011
   63.0253750000000         2.423754955992093E-011
   63.1384250000000         2.432231102536417E-011
   63.2514750000000         2.442783206196406E-011
   63.3645250000000         2.455407691007887E-011
   63.4775750000000         2.470060946744255E-011
   63.5906250000000         2.486665750744176E-011
   63.7036750000000         2.505112122766188E-011
   63.8167250000000         2.525263441731660E-011
   63.9297750000000         2.546962248640416E-011
   64.0428250000000         2.570035519844015E-011
   64.1558750000000         2.594298276370846E-011
   64.2689250000000         2.619561255678158E-011
   64.3819750000000         2.645631935507110E-011
   64.4950250000000         2.672319761155616E-011
   64.6080750000000         2.699441441822051E-011
   64.7211250000000         2.726814221929942E-011
   64.8341750000000         2.754267197845935E-011
   64.9472250000000         2.781630858674544E-011
   65.0602750000000         2.808743543794606E-011
   65.1733250000000         2.835446287225428E-011
   65.2863750000000         2.861582980488900E-011
   65.3994250000000         2.886995845710545E-011
   65.5124750000000         2.911528774430318E-011