 -0.847875000000000         1.465153300287650E-023
 -0.734825000000000        -1.725218308295179E-017
 -0.621775000000000        -1.221651416606326E-016
 -0.508725000000000        -5.908611949852233E-016
 -0.395675000000000        -2.303364863414901E-015
 -0.282625000000000        -7.549663274748994E-015
 -0.169575000000000        -2.121216848159982E-014
 -5.652500000000005E-002   -5.188283372305784E-014
  5.652499999999994E-002   -1.121962377200105E-013
  0.169575000000000        -2.180118033434629E-013
  0.282625000000000        -3.869939333917673E-013
  0.395675000000000        -6.375796596962206E-013
  0.508725000000000        -9.888656832271615E-013
  0.621775000000000        -1.461021955466106E-012
  0.734825000000000        -2.075715198487192E-012
  0.847875000000000        -2.855659783800304E-012
  0.960925000000000        -3.823961543066734E-012
   1.07397500000000        -5.002995422495226E-012
   1.18702500000000        -6.412870065822739E-012
   1.30007500000000        -8.069861872722684E-012
   1.41312500000000        -9.985021517450053E-012
   1.52617500000000        -1.216286980299996E-011
   1.63922500000000        -1.459976867087825E-011
   1.75227500000000        -1.728290196628473E-011
   1.86532500000000        -2.018962987587905E-011
   1.97837500000000        -2.328645667886171E-011
   2.09142500000000        -2.652899167631568E-011
   2.20447500000000        -2.986175790610067E-011
   2.31752500000000        -3.322036587148011E-011
   2.43057500000000        -3.652922303300559E-011
   2.54362500000000        -3.970612395060366E-011
   2.65667500000000        -4.266540480447433E-011
   2.76972500000000        -4.531353035658436E-011
   2.88277500000000        -4.756108384700546E-011
   2.99582500000000        -4.931742810151018E-011
   3.10887500000000        -5.050076523038614E-011
   3.22192500000000        -5.103236684723778E-011
   3.33497500000000        -5.085236534593900E-011
   3.44802500000000        -4.990814921931278E-011
   3.56107500000000        -4.816846293144613E-011
   3.67412500000000        -4.561762627681778E-011
   3.78717500000000        -4.226288974610218E-011
   3.90022500000000        -3.812792920576088E-011
   4.01327500000000        -3.325953399613466E-011
   4.12632500000000        -2.772227132682062E-011
   4.23937500000000        -2.159936894184443E-011
   4.35242500000000        -1.498739490740326E-011
   4.46547500000000        -7.996642232546790E-012
   4.57852500000000        -7.448463743094519E-013
   4.69157500000000         6.644561882260552E-012
   4.80462500000000         1.405268712351754E-011
   4.91767500000000         2.136152126532471E-011
   5.03072500000000         2.845866186658239E-011
   5.14377500000000         3.524738073503560E-011
   5.25682500000000         4.164651678579121E-011
   5.36987500000000         4.758993987399254E-011
   5.48292500000000         5.303166320573045E-011
   5.59597500000000         5.794552176233552E-011
   5.70902500000000         6.232410437368841E-011
   5.82207500000000         6.617929908296765E-011
   5.93512500000000         6.953612179813242E-011
   6.04817500000000         7.243397424341511E-011
   6.16122500000000         7.492089896870178E-011
   6.27427500000000         7.704787667967230E-011
   6.38732500000000         7.886707245534497E-011
   6.50037500000000         8.042641203100706E-011
   6.61342500000000         8.176141691383846E-011
   6.72647500000000         8.290002515888081E-011
   6.83952500000000         8.385123376014938E-011
   6.95257500000000         8.460622858287903E-011
   7.06562500000000         8.513927103561525E-011
   7.17867500000000         8.540486373284929E-011
   7.29172500000000         8.533927412851371E-011
   7.40477500000000         8.486459432272863E-011
   7.51782500000000         8.389332398584575E-011
   7.63087500000000         8.232808328286210E-011
   7.74392500000000         8.007157971230473E-011
   7.85697500000000         7.703348890207373E-011
   7.97002500000000         7.312621561174360E-011
   8.08307500000000         6.828488759127522E-011
   8.19612500000000         6.246092661630173E-011
   8.30917500000000         5.563209675864861E-011
   8.42222500000000         4.780191014285657E-011
   8.53527500000000         3.900838657419719E-011
   8.64832500000000         2.931570802865002E-011
   8.76137500000000         1.881970998372418E-011
   8.87442500000000         7.643530257149367E-012
   8.98747500000000        -4.066071576523334E-012
   9.10052500000000        -1.614532815515286E-011
   9.21357500000000        -2.841741376108458E-011
   9.32662500000000        -4.070002447266930E-011
   9.43967500000000        -5.281279553825550E-011
   9.55272500000000        -6.458462540165273E-011
   9.66577500000000        -7.586050324145453E-011
   9.77882500000000        -8.650392394235676E-011
   9.89187500000000        -9.641430279679327E-011
   10.0049250000000        -1.055126555884694E-010
   10.1179750000000        -1.137586262428633E-010
   10.2310250000000        -1.211429162217400E-010
   10.3440750000000        -1.276912250404538E-010
   10.4571250000000        -1.334570590489806E-010
   10.5701750000000        -1.385194337062715E-010
   10.6832250000000        -1.429815074402124E-010
   10.7962750000000        -1.469524958629141E-010
   10.9093250000000        -1.505545886634909E-010
   11.0223750000000        -1.539028851630957E-010
   11.1354250000000        -1.571090663534554E-010
   11.2484750000000        -1.602673571729611E-010
   11.3615250000000        -1.634517890688735E-010
   11.4745750000000        -1.667119649271474E-010
   11.5876250000000        -1.700732591509549E-010
   11.7006750000000        -1.735281717569804E-010
   11.8137250000000        -1.770484366051256E-010
   11.9267750000000        -1.805768240301215E-010
   12.0398250000000        -1.840433820090193E-010
   12.1528750000000        -1.873580337124457E-010
   12.2659250000000        -1.904318707081518E-010
   12.3789750000000        -1.931720037130768E-010
   12.4920250000000        -1.955022470687111E-010
   12.6050750000000        -1.973590444492988E-010
   12.7181250000000        -1.987061732950885E-010
   12.8311750000000        -1.995376375571041E-010
   12.9442250000000        -1.998841546802773E-010
   13.0572750000000        -1.998127034277923E-010
   13.1703250000000        -1.994287002061647E-010
   13.2833750000000        -1.988740519763493E-010
   13.3964250000000        -1.983223425216775E-010
   13.5094750000000        -1.979748359037724E-010
   13.6225250000000        -1.980493041837068E-010
   13.7355750000000        -1.987735018964430E-010
   13.8486250000000        -2.003744072377386E-010
   13.9616750000000        -2.030638678388343E-010
   14.0747250000000        -2.070348239666237E-010
   14.1877750000000        -2.124466529190411E-010
   14.3008250000000        -2.194137939697595E-010
   14.4138750000000        -2.280057599476439E-010
   14.5269250000000        -2.382338655626990E-010
   14.6399750000000        -2.500558719595807E-010
   14.7530250000000        -2.633689951998457E-010
   14.8660750000000        -2.780191586817477E-010
   14.9791250000000        -2.937938689276526E-010
   15.0921750000000        -3.104460034132123E-010
   15.2052250000000        -3.276870106679068E-010
   15.3182750000000        -3.452094016558586E-010
   15.4313250000000        -3.626884896639570E-010
   15.5443750000000        -3.798043281327316E-010
   15.6574250000000        -3.962437147835984E-010
   15.7704750000000        -4.117248188313155E-010
   15.8835250000000        -4.259892161814849E-010
   15.9965750000000        -4.388313748078505E-010
   16.1096250000000        -4.500847510562846E-010
   16.2226750000000        -4.596415253373634E-010
   16.3357250000000        -4.674485601312505E-010
   16.4487750000000        -4.735055048550649E-010
   16.5618250000000        -4.778615277351859E-010
   16.6748750000000        -4.806126861994775E-010
   16.7879250000000        -4.818911240129334E-010
   16.9009750000000        -4.818599994951806E-010
   17.0140250000000        -4.807016003116989E-010
   17.1270750000000        -4.786077521439297E-010
   17.2401250000000        -4.757713289286024E-010
   17.3531750000000        -4.723735396249602E-010
   17.4662250000000        -4.685805078722701E-010
   17.5792750000000        -4.645326702217104E-010
   17.6923250000000        -4.603436541560567E-010
   17.8053750000000        -4.560947180482261E-010
   17.9184250000000        -4.518364850348038E-010
   18.0314750000000        -4.475876174845998E-010
   18.1445250000000        -4.433433762807405E-010
   18.2575750000000        -4.390714731473165E-010
   18.3706250000000        -4.347302349877022E-010
   18.4836750000000        -4.302644282445779E-010
   18.5967250000000        -4.256212234199689E-010
   18.7097750000000        -4.207544011206790E-010
   18.8228250000000        -4.156294272607681E-010
   18.9358750000000        -4.102329929083415E-010
   19.0489250000000        -4.045781380564522E-010
   19.1619750000000        -3.986991393213810E-010
   19.2750250000000        -3.926705969268769E-010
   19.3880750000000        -3.865858484090129E-010
   19.5011250000000        -3.805726952482021E-010
   19.6141750000000        -3.747778831633866E-010
   19.7272250000000        -3.693689519874441E-010
   19.8402750000000        -3.645217131649967E-010
   19.9533250000000        -3.604208394743670E-010
   20.0663750000000        -3.572434669203564E-010
   20.1794250000000        -3.551589814415135E-010
   20.2924750000000        -3.543152014893590E-010
   20.4055250000000        -3.548348398786420E-010
   20.5185750000000        -3.568143422742520E-010
   20.6316250000000        -3.603086743447106E-010
   20.7446750000000        -3.653397210131294E-010
   20.8577250000000        -3.718890022648352E-010
   20.9707750000000        -3.798984854173051E-010
   21.0838250000000        -3.892771900166250E-010
   21.1968750000000        -3.998976253000723E-010
   21.3099250000000        -4.116069002368204E-010
   21.4229750000000        -4.242299276600026E-010
   21.5360250000000        -4.375749725068225E-010
   21.6490750000000        -4.514421311223745E-010
   21.7621250000000        -4.656307301232290E-010
   21.8751750000000        -4.799409987968549E-010
   21.9882250000000        -4.941863864937160E-010
   22.1012750000000        -5.081942751273418E-010
   22.2143250000000        -5.218125898815992E-010
   22.3273750000000        -5.349115612090803E-010
   22.4404250000000        -5.473857493822711E-010
   22.5534750000000        -5.591555585599054E-010
   22.6665250000000        -5.701657396109879E-010
   22.7795750000000        -5.803880758389029E-010
   22.8926250000000        -5.898126989503541E-010
   23.0056750000000        -5.984521332736594E-010
   23.1187250000000        -6.063357818367024E-010
   23.2317750000000        -6.135059666530658E-010
   23.3448250000000        -6.200151494227922E-010
   23.4578750000000        -6.259262932441349E-010
   23.5709250000000        -6.313038870863267E-010
   23.6839750000000        -6.362184634613097E-010
   23.7970250000000        -6.407387014298972E-010
   23.9100750000000        -6.449330311204808E-010
   24.0231250000000        -6.488711659614515E-010
   24.1361750000000        -6.526164976668077E-010
   24.2492250000000        -6.562331753170528E-010
   24.3622750000000        -6.597811039855869E-010
   24.4753250000000        -6.633197837254647E-010
   24.5883750000000        -6.669045434319649E-010
   24.7014250000000        -6.705932142037342E-010
   24.8144750000000        -6.744386330538803E-010
   24.9275250000000        -6.784955256381933E-010
   25.0405750000000        -6.828136426677766E-010
   25.1536250000000        -6.874460082480399E-010
   25.2666750000000        -6.924413963061870E-010
   25.3797250000000        -6.978466739720023E-010
   25.4927750000000        -7.037072297768162E-010
   25.6058250000000        -7.100633480665220E-010
   25.7188750000000        -7.169521723264274E-010
   25.8319250000000        -7.244061532102994E-010
   25.9449750000000        -7.324528595144478E-010
   26.0580250000000        -7.411140163882845E-010
   26.1710750000000        -7.504066862750921E-010
   26.2841250000000        -7.603407077809867E-010
   26.3971750000000        -7.709220142335371E-010
   26.5102250000000        -7.821508913078265E-010
   26.6232750000000        -7.940234485197007E-010
   26.7363250000000        -8.065305361240430E-010
   26.8493750000000        -8.196603029703795E-010
   26.9624250000000        -8.333933276846566E-010
   27.0754750000000        -8.477109366522985E-010
   27.1885250000000        -8.625897314751930E-010
   27.3015750000000        -8.779987007151147E-010
   27.4146250000000        -8.939070345333027E-010
   27.5276750000000        -9.102752064726050E-010
   27.6407250000000        -9.270590516714093E-010
   27.7537750000000        -9.442067190456090E-010
   27.8668250000000        -9.616600766521901E-010
   27.9798750000000        -9.793507215583556E-010
   28.0929250000000        -9.972027615559773E-010
   28.2059750000000        -1.015130345637495E-009
   28.3190250000000        -1.033038265073261E-009
   28.4320750000000        -1.050824538336773E-009
   28.5451250000000        -1.068379510933999E-009
   28.6581750000000        -1.085587279626858E-009
   28.7712250000000        -1.102329886183124E-009
   28.8842750000000        -1.118488506737638E-009
   28.9973250000000        -1.133947223636618E-009
   29.1103750000000        -1.148596235149567E-009
   29.2234250000000        -1.162336495946651E-009
   29.3364750000000        -1.175080606218341E-009
   29.4495250000000        -1.186758661156124E-009
   29.5625750000000        -1.197321073105479E-009
   29.6756250000000        -1.206739045872215E-009
   29.7886750000000        -1.215008897032728E-009
   29.9017250000000        -1.222152254912582E-009
   30.0147750000000        -1.228215350089766E-009
   30.1278250000000        -1.233267348897508E-009
   30.2408750000000        -1.237402917282470E-009
   30.3539250000000        -1.240734403011180E-009
   30.4669750000000        -1.243391556338797E-009
   30.5800250000000        -1.245515450292056E-009
   30.6930750000000        -1.247255781859179E-009
   30.8061250000000        -1.248764591010920E-009
   30.9191750000000        -1.250189676129542E-009
   31.0322250000000        -1.251673078409547E-009
   31.1452750000000        -1.253343834312039E-009
   31.2583250000000        -1.255315214248667E-009
   31.3713750000000        -1.257678874434144E-009
   31.4844250000000        -1.260505299048524E-009
   31.5974750000000        -1.263842667947936E-009
   31.7105250000000        -1.267712129007297E-009
   31.8235750000000        -1.272113418744700E-009
   31.9366250000000        -1.277022472495768E-009
   32.0496750000000        -1.282396736419775E-009
   32.1627250000000        -1.288177366024582E-009
   32.2757750000000        -1.294292870304889E-009
   32.3888250000000        -1.300663668717974E-009
   32.5018750000000        -1.307205935093850E-009
   32.6149250000000        -1.313836609522548E-009
   32.7279750000000        -1.320478860028074E-009
   32.8410250000000        -1.327061852668834E-009
   32.9540750000000        -1.333526844540885E-009
   33.0671250000000        -1.339829489632747E-009
   33.1801750000000        -1.345940251212771E-009
   33.2932250000000        -1.351842591166911E-009
   33.4062750000000        -1.357537207395380E-009
   33.5193250000000        -1.363035766206284E-009
   33.6323750000000        -1.368363156855175E-009
   33.7454250000000        -1.373551033079186E-009
   33.8584750000000        -1.378636379735198E-009
   33.9715250000000        -1.383659593618175E-009
   34.0845750000000        -1.388655570397381E-009
   34.1976250000000        -1.393658763069377E-009
   34.3106750000000        -1.398692098107728E-009
   34.4237250000000        -1.403769043722402E-009
   34.5367750000000        -1.408891848620790E-009
   34.6498250000000        -1.414048162584951E-009
   34.7628750000000        -1.419215702043018E-009
   34.8759250000000        -1.424355341786010E-009
   34.9889750000000        -1.429420870005466E-009
   35.1020250000000        -1.434359599064436E-009
   35.2150750000000        -1.439111033047057E-009
   35.3281250000000        -1.443615609107009E-009
   35.4411750000000        -1.447816948474858E-009
   35.5542250000000        -1.451664976723081E-009
   35.6672750000000        -1.455125073269166E-009
   35.7803250000000        -1.458173302067388E-009
   35.8933750000000        -1.460809509524932E-009
   36.0064250000000        -1.463051849333024E-009
   36.1194750000000        -1.464943498906214E-009
   36.2325250000000        -1.466551459974481E-009
   36.3455750000000        -1.467967688746182E-009
   36.4586250000000        -1.469305089110094E-009
   36.5716750000000        -1.470697169263264E-009
   36.6847250000000        -1.472297539928686E-009
   36.7977750000000        -1.474267121735047E-009
   36.9108250000000        -1.476777612324711E-009
   37.0238750000000        -1.480000346225834E-009
   37.1369250000000        -1.484102574265197E-009
   37.2499750000000        -1.489240191369498E-009
   37.3630250000000        -1.495553515712300E-009
   37.4760750000000        -1.503156937618163E-009
   37.5891250000000        -1.512140672787635E-009
   37.7021750000000        -1.522559092306021E-009
   37.8152250000000        -1.534433718970112E-009
   37.9282750000000        -1.547748474875785E-009
   38.0413250000000        -1.562445515885015E-009
   38.1543750000000        -1.578435006176551E-009
   38.2674250000000        -1.595586160692625E-009
   38.3804750000000        -1.613740657282985E-009
   38.4935250000000        -1.632707865903803E-009
   38.6065750000000        -1.652277894563909E-009
   38.7196250000000        -1.672226042948520E-009
   38.8326750000000        -1.692315106584400E-009
   38.9457250000000        -1.712311556730063E-009
   39.0587750000000        -1.731984411668602E-009
   39.1718250000000        -1.751118789193449E-009
   39.2848750000000        -1.769520128899904E-009
   39.3979250000000        -1.787022224099985E-009
   39.5109750000000        -1.803487919840399E-009
   39.6240250000000        -1.818816580827356E-009
   39.7370750000000        -1.832950447264558E-009
   39.8501250000000        -1.845866390639812E-009
   39.9631750000000        -1.857584739920565E-009
   40.0762250000000        -1.868163952212059E-009
   40.1892750000000        -1.877696063690375E-009
   40.3023250000000        -1.886303804535222E-009
   40.4153750000000        -1.894137139297242E-009
   40.5284250000000        -1.901364178213386E-009
   40.6414750000000        -1.908167760117549E-009
   40.7545250000000        -1.914735400530713E-009
   40.8675750000000        -1.921254963078620E-009
   40.9806250000000        -1.927908291960316E-009
   41.0936750000000        -1.934860467430703E-009
   41.2067250000000        -1.942264198147375E-009
   41.3197750000000        -1.950247573712431E-009
   41.4328250000000        -1.958912964831739E-009
   41.5458750000000        -1.968338829223942E-009
   41.6589250000000        -1.978575476590600E-009
   41.7719750000000        -1.989647335907370E-009
   41.8850250000000        -2.001557159071944E-009
   41.9980750000000        -2.014283763576370E-009
   42.1111250000000        -2.027791252451295E-009
   42.2241750000000        -2.042027450118964E-009
   42.3372250000000        -2.056933770908839E-009
   42.4502750000000        -2.072445713409697E-009
   42.5633250000000        -2.088499092534312E-009
   42.6763750000000        -2.105031963563819E-009
   42.7894250000000        -2.121989817128266E-009
   42.9024750000000        -2.139322821654023E-009
   43.0155250000000        -2.156993841161710E-009
   43.1285750000000        -2.174972517608286E-009
   43.2416250000000        -2.193237549850466E-009
   43.3546750000000        -2.211772957637387E-009
   43.4677250000000        -2.230565342571550E-009
   43.5807750000000        -2.249603734762135E-009
   43.6938250000000        -2.268872419100179E-009
   43.8068750000000        -2.288349871926133E-009
   43.9199250000000        -2.308002642883124E-009
   44.0329750000000        -2.327785841417992E-009
   44.1460250000000        -2.347637164761596E-009
   44.2590750000000        -2.367476634022039E-009
   44.3721250000000        -2.387208071782904E-009
   44.4851750000000        -2.406714809650122E-009
   44.5982250000000        -2.425868088414042E-009
   44.7112750000000        -2.444524641261709E-009
   44.8243250000000        -2.462529915445508E-009
   44.9373750000000        -2.479729686625505E-009
   45.0504250000000        -2.495968134260167E-009
   45.1634750000000        -2.511098030506703E-009
   45.2765250000000        -2.524981914837935E-009
   45.3895750000000        -2.537506674123911E-009
   45.5026250000000        -2.548577395158123E-009
   45.6156750000000        -2.558133682841329E-009
   45.7287250000000        -2.566141053213212E-009
   45.8417750000000        -2.572607000241454E-009
   45.9548250000000        -2.577568086249357E-009
   46.0678750000000        -2.581099799731218E-009
   46.1809250000000        -2.583311187824020E-009
   46.2939750000000        -2.584338171921355E-009
   46.4070250000000        -2.584344581932725E-009
   46.5200750000000        -2.583514789885466E-009
   46.6331250000000        -2.582046185428496E-009
   46.7461750000000        -2.580142190082879E-009
   46.8592250000000        -2.578008753214806E-009
   46.9722750000000        -2.575842152430493E-009
   47.0853250000000        -2.573828633634998E-009
   47.1983750000000        -2.572134319557104E-009
   47.3114250000000        -2.570902744283270E-009
   47.4244750000000        -2.570252060339041E-009
   47.5375250000000        -2.570270932017594E-009
   47.6505750000000        -2.571019610645911E-009
   47.7636250000000        -2.572532149385815E-009
   47.8766750000000        -2.574815687468378E-009
   47.9897250000000        -2.577854105182541E-009
   48.1027750000000        -2.581614274428955E-009
   48.2158250000000        -2.586049531593636E-009
   48.3288750000000        -2.591105072103516E-009
   48.4419250000000        -2.596721848217884E-009
   48.5549750000000        -2.602845678550048E-009
   48.6680250000000        -2.609426909007299E-009
   48.7810750000000        -2.616428673558299E-009
   48.8941250000000        -2.623825535620806E-009
   49.0071750000000        -2.631608991708958E-009
   49.1202250000000        -2.639783056251807E-009
   49.2332750000000        -2.648371487354880E-009
   49.3463250000000        -2.657409231300641E-009
   49.4593750000000        -2.666937858132655E-009
   49.5724250000000        -2.677010947591892E-009
   49.6854750000000        -2.687681916053159E-009
   49.7985250000000        -2.699000521485936E-009
   49.9115750000000        -2.711009579348833E-009
   50.0246250000000        -2.723743434211568E-009
   50.1376750000000        -2.737214354078909E-009
   50.2507250000000        -2.751419065212091E-009
   50.3637750000000        -2.766331742739385E-009
   50.4768250000000        -2.781901941118544E-009
   50.5898750000000        -2.798058367659351E-009
   50.7029250000000        -2.814704197539566E-009
   50.8159750000000        -2.831725938691861E-009
   50.9290250000000        -2.848990246369205E-009
   51.0420750000000        -2.866352172045091E-009
   51.1551250000000        -2.883662660429327E-009
   51.2681750000000        -2.900766059206682E-009
   51.3812250000000        -2.917515705236661E-009
   51.4942750000000        -2.933771030971642E-009
   51.6073250000000        -2.949410348619921E-009
   51.7203750000000        -2.964329401901276E-009
   51.8334250000000        -2.978450470535685E-009
   51.9464750000000        -2.991720679793925E-009
   52.0595250000000        -3.004118090574363E-009
   52.1725750000000        -3.015651117866983E-009
   52.2856250000000        -3.026354143388532E-009
   52.3986750000000        -3.036294103924956E-009
   52.5117250000000        -3.045556329684560E-009
   52.6247750000000        -3.054248786389387E-009
   52.7378250000000        -3.062495946922316E-009
   52.8508750000000        -3.070430505589768E-009
   52.9639250000000        -3.078190676242959E-009
   53.0769750000000        -3.085912614370968E-009
   53.1900250000000        -3.093728240825295E-009
   53.3030750000000        -3.101754465974833E-009
   53.4161250000000        -3.110095809784673E-009
   53.5291750000000        -3.118837588058970E-009
   53.6422250000000        -3.128041762194407E-009
   53.7552750000000        -3.137750845145268E-009
   53.8683250000000        -3.147983957058497E-009
   53.9813750000000        -3.158739804795615E-009
   54.0944250000000        -3.169996027933617E-009
   54.2074750000000        -3.181717262929273E-009
   54.3205250000000        -3.193852879174659E-009
   54.4335750000000        -3.206346686933384E-009
   54.5466250000000        -3.219136336844675E-009
   54.6596750000000        -3.232160907251324E-009
   54.7727250000000        -3.245364911297560E-009
   54.8857750000000        -3.258700568161147E-009
   54.9988250000000        -3.272132970868761E-009
   55.1118750000000        -3.285640354282251E-009
   55.2249250000000        -3.299217900623450E-009
   55.3379750000000        -3.312874138385532E-009
   55.4510250000000        -3.326635548704685E-009
   55.5640750000000        -3.340542879480763E-009
   55.6771250000000        -3.354645560968108E-009
   55.7901750000000        -3.369001270836510E-009
   55.9032250000000        -3.383676304986499E-009
   56.0162750000000        -3.398729903519969E-009
   56.1293250000000        -3.414221592495567E-009
   56.2423750000000        -3.430198594442424E-009
   56.3554250000000        -3.446697457077970E-009
   56.4684750000000        -3.463736115424086E-009
   56.5815250000000        -3.481310404819034E-009
   56.6945750000000        -3.499396623619723E-009
   56.8076250000000        -3.517947107384732E-009
   56.9206750000000        -3.536889937595824E-009
   57.0337250000000        -3.556130139011968E-009
   57.1467750000000        -3.575554187589578E-009
   57.2598250000000        -3.595029637029502E-009
   57.3728750000000        -3.614412361145078E-009
   57.4859250000000        -3.633548340332799E-009
   57.5989750000000        -3.652280875940132E-009
   57.7120250000000        -3.670456489664236E-009
   57.8250750000000        -3.687927737757807E-009
   57.9381250000000        -3.704559130556875E-009
   58.0511750000000        -3.720235329699966E-009
   58.1642250000000        -3.734862824363857E-009
   58.2772750000000        -3.748367957791724E-009
   58.3903250000000        -3.760708009305351E-009
   58.5033750000000        -3.771866784578305E-009
   58.6164250000000        -3.781854789831102E-009
   58.7294750000000        -3.790707659732441E-009
   58.8425250000000        -3.798486947273464E-009
   58.9555750000000        -3.805269742851570E-009
   59.0686250000000        -3.811152780817766E-009
   59.1816750000000        -3.816243578508738E-009
   59.2947250000000        -3.820653044665202E-009
   59.4077750000000        -3.824494981982061E-009
   59.5208250000000        -3.827881129234552E-009
   59.6338750000000        -3.830911362693309E-009
   59.7469250000000        -3.833677073130329E-009
   59.8599750000000        -3.836255194780531E-009
   59.9730250000000        -3.838705818633476E-009
   60.0860750000000        -3.841074185228377E-009
   60.1991250000000        -3.843388884772816E-009
   60.3121750000000        -3.845665577803420E-009
   60.4252250000000        -3.847907863954897E-009
   60.5382750000000        -3.850111741654067E-009
   60.6513250000000        -3.852268870759547E-009
   60.7643750000000        -3.854372289680864E-009
   60.8774250000000        -3.856420233345212E-009
   60.9904750000000        -3.858419505002766E-009
   61.1035250000000        -3.860390055660522E-009
   61.2165750000000        -3.862367288129703E-009
   61.3296250000000        -3.864406985540208E-009
   61.4426750000000        -3.866580424930828E-009
   61.5557250000000        -3.868982449105503E-009
   61.6687750000000        -3.871723073767647E-009
   61.7818250000000        -3.874929085028001E-009
   61.8948750000000        -3.878740386217038E-009
   62.0079250000000        -3.883301757631475E-009
   62.1209750000000        -3.888763450394483E-009
   62.2340250000000        -3.895272919132910E-009
   62.3470750000000        -3.902969506754213E-009
   62.4601250000000        -3.911978931387767E-009
   62.5731750000000        -3.922407601688484E-009
   62.6862250000000        -3.934339619168225E-009
   62.7992750000000        -3.947834882496123E-009
   62.9123250000000        -3.962921638108858E-009
   63.0253750000000        -3.979601667653154E-009
   63.1384250000000        -3.997846954001399E-009
   63.2514750000000        -4.017598938650674E-009
   63.3645250000000        -4.038775269673178E-009
   63.4775750000000        -4.061270925401685E-009
   63.5906250000000        -4.084963519221137E-009
   63.7036750000000        -4.109715288653836E-009
   63.8167250000000        -4.135379816069609E-009
   63.9297750000000        -4.161806674819684E-009
   64.0428250000000        -4.188845734157037E-009
   64.1558750000000        -4.216349267294228E-009
   64.2689250000000        -4.244178949048568E-009
   64.3819750000000        -4.272201445265718E-009
   64.4950250000000        -4.300296653648645E-009
   64.6080750000000        -4.328355584917935E-009
   64.7211250000000        -4.356274455536300E-009
   64.8341750000000        -4.383963728311499E-009
   64.9472250000000        -4.411335678395258E-009
   65.0602750000000        -4.438308884708146E-009
   65.1733250000000        -4.464803476324378E-009
   65.2863750000000        -4.490740036719697E-009
   65.3994250000000        -4.516034535605804E-009
   65.5124750000000        -4.540601451329993E-009