 -0.847875000000000        -1.170293816234450E-023
 -0.734825000000000         1.411324347382110E-017
 -0.621775000000000         9.836548443395870E-017
 -0.508725000000000         4.692384003647464E-016
 -0.395675000000000         1.805395843314947E-015
 -0.282625000000000         5.831174484406887E-015
 -0.169575000000000         1.609242052307698E-014
 -5.652500000000005E-002    3.847536483793485E-014
  5.652499999999994E-002    8.082571463564851E-014
  0.169575000000000         1.513967742064124E-013
  0.282625000000000         2.567818646489748E-013
  0.395675000000000         4.003270134430112E-013
  0.508725000000000         5.816135045657847E-013
  0.621775000000000         7.968667095167858E-013
  0.734825000000000         1.039494961783487E-012
  0.847875000000000         1.300470558894518E-012
  0.960925000000000         1.568279421581018E-012
   1.07397500000000         1.829019746889946E-012
   1.18702500000000         2.065951451286362E-012
   1.30007500000000         2.259324022854499E-012
   1.41312500000000         2.386300794397081E-012
   1.52617500000000         2.420643405564172E-012
   1.63922500000000         2.332447328095114E-012
   1.75227500000000         2.089210362059918E-012
   1.86532500000000         1.654790811904642E-012
   1.97837500000000         9.906415968199914E-013
   2.09142500000000         5.581221907578538E-014
   2.20447500000000        -1.192589515651021E-012
   2.31752500000000        -2.797174763226281E-012
   2.43057500000000        -4.802079801278597E-012
   2.54362500000000        -7.248136422495128E-012
   2.65667500000000        -1.017446432242488E-011
   2.76972500000000        -1.361625022717901E-011
   2.88277500000000        -1.760280900392162E-011
   2.99582500000000        -2.215742071465702E-011
   3.10887500000000        -2.729485328670945E-011
   3.22192500000000        -3.301982371718101E-011
   3.33497500000000        -3.932868641740292E-011
   3.44802500000000        -4.620484057388545E-011
   3.56107500000000        -5.362293930817636E-011
   3.67412500000000        -6.154330488582428E-011
   3.78717500000000        -6.991859879189417E-011
   3.90022500000000        -7.868861986756343E-011
   4.01327500000000        -8.778665012595687E-011
   4.12632500000000        -9.713931082514691E-011
   4.23937500000000        -1.066657868975898E-010
   4.35242500000000        -1.162854162266835E-010
   4.46547500000000        -1.259151168860718E-010
   4.57852500000000        -1.354772776720670E-010
   4.69157500000000        -1.448978517342919E-010
   4.80462500000000        -1.541115942731858E-010
   4.91767500000000        -1.630634171258526E-010
   5.03072500000000        -1.717088495129792E-010
   5.14377500000000        -1.800184866922955E-010
   5.25682500000000        -1.879772422399394E-010
   5.36987500000000        -1.955815536565205E-010
   5.48292500000000        -2.028430998170423E-010
   5.59597500000000        -2.097845696065834E-010
   5.70902500000000        -2.164377522999049E-010
   5.82207500000000        -2.228422664265654E-010
   5.93512500000000        -2.290387256464308E-010
   6.04817500000000        -2.350685442375567E-010
   6.16122500000000        -2.409675672952979E-010
   6.27427500000000        -2.467632577925344E-010
   6.38732500000000        -2.524715085697754E-010
   6.50037500000000        -2.580913711104677E-010
   6.61342500000000        -2.636024108579997E-010
   6.72647500000000        -2.689676721100730E-010
   6.83952500000000        -2.741267630713984E-010
   6.95257500000000        -2.789998858558194E-010
   7.06562500000000        -2.834889078116312E-010
   7.17867500000000        -2.874793373228903E-010
   7.29172500000000        -2.908458414441583E-010
   7.40477500000000        -2.934546087217106E-010
   7.51782500000000        -2.951738069611749E-010
   7.63087500000000        -2.958740187709936E-010
   7.74392500000000        -2.954379953945059E-010
   7.85697500000000        -2.937702210071657E-010
   7.97002500000000        -2.907933862561305E-010
   8.08307500000000        -2.864645691159017E-010
   8.19612500000000        -2.807742880216682E-010
   8.30917500000000        -2.737467902517667E-010
   8.42222500000000        -2.654459511874320E-010
   8.53527500000000        -2.559724789936741E-010
   8.64832500000000        -2.454625640901962E-010
   8.76137500000000        -2.340805788273764E-010
   8.87442500000000        -2.220205012685072E-010
   8.98747500000000        -2.094918366208138E-010
   9.10052500000000        -1.967129371419001E-010
   9.21357500000000        -1.839052105804252E-010
   9.32662500000000        -1.712814410488570E-010
   9.43967500000000        -1.590349955883605E-010
   9.55272500000000        -1.473351009335436E-010
   9.66577500000000        -1.363187113541437E-010
   9.77882500000000        -1.260828610833189E-010
   9.89187500000000        -1.166799431254982E-010
   10.0049250000000        -1.081194264879103E-010
   10.1179750000000        -1.003650410385550E-010
   10.2310250000000        -9.333944988185075E-011
   10.3440750000000        -8.692728721193969E-011
   10.4571250000000        -8.098317423820176E-011
   10.5701750000000        -7.534012272922390E-011
   10.6832250000000        -6.981810372219437E-011
   10.7962750000000        -6.423857734084443E-011
   10.9093250000000        -5.842806940064127E-011
   11.0223750000000        -5.223839051283001E-011
   11.1354250000000        -4.554547348369407E-011
   11.2484750000000        -3.826609948074979E-011
   11.3615250000000        -3.035844820309434E-011
   11.4745750000000        -2.182922671392179E-011
   11.5876250000000        -1.272968308254465E-011
   11.7006750000000        -3.160750084036360E-012
   11.8137250000000         6.737412483383715E-012
   11.9267750000000         1.678892339005264E-011
   12.0398250000000         2.679260059836150E-011
   12.1528750000000         3.653304533937125E-011
   12.2659250000000         4.579260003946384E-011
   12.3789750000000         5.436212680647074E-011
   12.4920250000000         6.205967794119532E-011
   12.6050750000000         6.873505824564351E-011
   12.7181250000000         7.428391729700593E-011
   12.8311750000000         7.865504801395045E-011
   12.9442250000000         8.185818422122648E-011
   13.0572750000000         8.396323301564936E-011
   13.1703250000000         8.510241811439315E-011
   13.2833750000000         8.546557149880454E-011
   13.3964250000000         8.529336343028336E-011
   13.5094750000000         8.486989440810778E-011
   13.6225250000000         8.450649248321939E-011
   13.7355750000000         8.453074702940427E-011
   13.8486250000000         8.527299903317348E-011
   13.9616750000000         8.704594470914164E-011
   14.0747250000000         9.013526413971995E-011
   14.1877750000000         9.477986064413353E-011
   14.3008250000000         1.011671087063153E-010
   14.4138750000000         1.094156055941586E-010
   14.5269250000000         1.195724617575598E-010
   14.6399750000000         1.316127820034514E-010
   14.7530250000000         1.454308464955803E-010
   14.8660750000000         1.608533715232438E-010
   14.9791250000000         1.776390145382072E-010
   15.0921750000000         1.954936620253379E-010
   15.2052250000000         2.140778788952750E-010
   15.3182750000000         2.330248781693700E-010
   15.4313250000000         2.519513437556388E-010
   15.5443750000000         2.704775183115138E-010
   15.6574250000000         2.882368962096532E-010
   15.7704750000000         3.048967787139449E-010
   15.8835250000000         3.201628616990994E-010
   15.9965750000000         3.337952479190976E-010
   16.1096250000000         3.456095921149743E-010
   16.2226750000000         3.554855283119905E-010
   16.3357250000000         3.633663669592337E-010
   16.4487750000000         3.692538014453360E-010
   16.5618250000000         3.732078564305850E-010
   16.6748750000000         3.753352457055678E-010
   16.7879250000000         3.757802228402204E-010
   16.9009750000000         3.747166253615048E-010
   17.0140250000000         3.723337367024465E-010
   17.1270750000000         3.688267534573236E-010
   17.2401250000000         3.643852217707470E-010
   17.3531750000000         3.591832150299646E-010
   17.4662250000000         3.533714489274854E-010
   17.5792750000000         3.470733474083513E-010
   17.6923250000000         3.403811619113815E-010
   17.8053750000000         3.333517207818169E-010
   17.9184250000000         3.260144745440482E-010
   18.0314750000000         3.183693615431966E-010
   18.1445250000000         3.103958258514764E-010
   18.2575750000000         3.020581108536161E-010
   18.3706250000000         2.933138738567719E-010
   18.4836750000000         2.841230902368081E-010
   18.5967250000000         2.744543743577255E-010
   18.7097750000000         2.642962547516052E-010
   18.8228250000000         2.536574893434733E-010
   18.9358750000000         2.425786347171092E-010
   19.0489250000000         2.311311466177384E-010
   19.1619750000000         2.194139159826416E-010
   19.2750250000000         2.075655898887934E-010
   19.3880750000000         1.957433202014304E-010
   19.5011250000000         1.841342277268964E-010
   19.6141750000000         1.729374977866129E-010
   19.7272250000000         1.623633528706589E-010
   19.8402750000000         1.526201071915238E-010
   19.9533250000000         1.439106574502383E-010
   20.0663750000000         1.364207434704255E-010
   20.1794250000000         1.303122428061254E-010
   20.2924750000000         1.257187572319144E-010
   20.4055250000000         1.227364519035340E-010
   20.5185750000000         1.214275911211797E-010
   20.6316250000000         1.218111952314240E-010
   20.7446750000000         1.238694830916409E-010
   20.8577250000000         1.275474417771082E-010
   20.9707750000000         1.327548334817606E-010
   21.0838250000000         1.393742119302898E-010
   21.1968750000000         1.472619800565780E-010
   21.3099250000000         1.562592066086642E-010
   21.4229750000000         1.661943739020389E-010
   21.5360250000000         1.768906939299361E-010
   21.6490750000000         1.881695747747321E-010
   21.7621250000000         1.998626998127403E-010
   21.8751750000000         2.118038728171431E-010
   21.9882250000000         2.238419026345549E-010
   22.1012750000000         2.358373209607445E-010
   22.2143250000000         2.476661798078499E-010
   22.3273750000000         2.592157409572987E-010
   22.4404250000000         2.703866544693450E-010
   22.5534750000000         2.810899624015383E-010
   22.6665250000000         2.912460046879567E-010
   22.7795750000000         3.007820809000619E-010
   22.8926250000000         3.096299564253864E-010
   23.0056750000000         3.177268561722627E-010
   23.1187250000000         3.250147455110527E-010
   23.2317750000000         3.314359742197025E-010
   23.3448250000000         3.369406684355176E-010
   23.4578750000000         3.414853467187717E-010
   23.5709250000000         3.450328266045935E-010
   23.6839750000000         3.475604600449927E-010
   23.7970250000000         3.490558572563322E-010
   23.9100750000000         3.495267342696924E-010
   24.0231250000000         3.490002541012442E-010
   24.1361750000000         3.475245143877730E-010
   24.2492250000000         3.451703709948523E-010
   24.3622750000000         3.420350580456561E-010
   24.4753250000000         3.382377993479391E-010
   24.5883750000000         3.339193150228186E-010
   24.7014250000000         3.292414788216054E-010
   24.8144750000000         3.243808808999470E-010
   24.9275250000000         3.195265241296843E-010
   25.0405750000000         3.148725908309588E-010
   25.1536250000000         3.106161041980423E-010
   25.2666750000000         3.069482522371674E-010
   25.3797250000000         3.040509337362239E-010
   25.4927750000000         3.020922971387767E-010
   25.6058250000000         3.012185045371959E-010
   25.7188750000000         3.015556385658600E-010
   25.8319250000000         3.032043451174521E-010
   25.9449750000000         3.062394303900636E-010
   26.0580250000000         3.107100353166374E-010
   26.1710750000000         3.166405500527696E-010
   26.2841250000000         3.240293543149780E-010
   26.3971750000000         3.328598443168540E-010
   26.5102250000000         3.430950587127913E-010
   26.6232750000000         3.546853222742616E-010
   26.7363250000000         3.675726146036011E-010
   26.8493750000000         3.816916879580742E-010
   26.9624250000000         3.969724735242995E-010
   27.0754750000000         4.133449569539988E-010
   27.1885250000000         4.307424452868480E-010
   27.3015750000000         4.490892604769734E-010
   27.4146250000000         4.683198771917809E-010
   27.5276750000000         4.883605467193562E-010
   27.6407250000000         5.091356294047554E-010
   27.7537750000000         5.305643821042655E-010
   27.8668250000000         5.525545655051213E-010
   27.9798750000000         5.750050303708162E-010
   28.0929250000000         5.977987684842423E-010
   28.2059750000000         6.208031404990212E-010
   28.3190250000000         6.438681516389757E-010
   28.4320750000000         6.668293449671352E-010
   28.5451250000000         6.895041008830485E-010
   28.6581750000000         7.116984250278279E-010
   28.7712250000000         7.332090843619313E-010
   28.8842750000000         7.538285530238018E-010
   28.9973250000000         7.733501539457829E-010
   29.1103750000000         7.915771161836805E-010
   29.2234250000000         8.083266065058243E-010
   29.3364750000000         8.234370533419867E-010
   29.4495250000000         8.367774170072882E-010
   29.5625750000000         8.482507001492416E-010
   29.6756250000000         8.577976366019530E-010
   29.7886750000000         8.654030270742243E-010
   29.9017250000000         8.710966762928401E-010
   30.0147750000000         8.749528890363451E-010
   30.1278250000000         8.770904808770734E-010
   30.2408750000000         8.776660707342920E-010
   30.3539250000000         8.768742973421093E-010
   30.4669750000000         8.749367201448358E-010
   30.5800250000000         8.720974939574079E-010
   30.6930750000000         8.686135611695437E-010
   30.8061250000000         8.647475700945329E-010
   30.9191750000000         8.607553453696266E-010
   31.0322250000000         8.568826096759136E-010
   31.1452750000000         8.533538789580056E-010
   31.2583250000000         8.503689115634497E-010
   31.3713750000000         8.480932578691089E-010
   31.4844250000000         8.466591784603341E-010
   31.5974750000000         8.461628814826668E-010
   31.7105250000000         8.466601333689472E-010
   31.8235750000000         8.481742746625490E-010
   31.9366250000000         8.506918436374142E-010
   32.0496750000000         8.541727002480642E-010
   32.1627250000000         8.585505885077044E-010
   32.2757750000000         8.637410171855825E-010
   32.3888250000000         8.696455526021993E-010
   32.5018750000000         8.761575753083850E-010
   32.6149250000000         8.831684015201729E-010
   32.7279750000000         8.905717736982863E-010
   32.8410250000000         8.982655554426857E-010
   32.9540750000000         9.061593519012545E-010
   33.0671250000000         9.141695586464669E-010
   33.1801750000000         9.222253033380746E-010
   33.2932250000000         9.302669847182938E-010
   33.4062750000000         9.382420654098695E-010
   33.5193250000000         9.461085665122686E-010
   33.6323750000000         9.538250007419534E-010
   33.7454250000000         9.613561092301071E-010
   33.8584750000000         9.686642389115063E-010
   33.9715250000000         9.757093246899778E-010
   34.0845750000000         9.824462206503085E-010
   34.1976250000000         9.888249167522419E-010
   34.3106750000000         9.947892209800331E-010
   34.4237250000000         1.000274459780395E-009
   34.5367750000000         1.005214866857462E-009
   34.6498250000000         1.009539896450713E-009
   34.7628750000000         1.013180537926240E-009
   34.8759250000000         1.016070495307358E-009
   34.9889750000000         1.018151684736854E-009
   35.1020250000000         1.019377925272986E-009
   35.2150750000000         1.019716291010397E-009
   35.3281250000000         1.019154769246779E-009
   35.4411750000000         1.017699996002270E-009
   35.5542250000000         1.015382593478224E-009
   35.6672750000000         1.012258739475104E-009
   35.7803250000000         1.008407936063361E-009
   35.8933750000000         1.003934702692408E-009
   36.0064250000000         9.989643166687235E-010
   36.1194750000000         9.936407351697122E-010
   36.2325250000000         9.881239783739809E-010
   36.3455750000000         9.825839884132843E-010
   36.4586250000000         9.771971468199062E-010
   36.5716750000000         9.721379525267573E-010
   36.6847250000000         9.675799918466987E-010
   36.7977750000000         9.636815828944319E-010
   36.9108250000000         9.605896251993172E-010
   37.0238750000000         9.584295445652855E-010
   37.1369250000000         9.573035827427711E-010
   37.2499750000000         9.572896082028561E-010
   37.3630250000000         9.584346910889417E-010
   37.4760750000000         9.607595212497527E-010
   37.5891250000000         9.642544061102140E-010
   37.7021750000000         9.688827074216465E-010
   37.8152250000000         9.745813679917073E-010
   37.9282750000000         9.812653779800152E-010
   38.0413250000000         9.888270993022112E-010
   38.1543750000000         9.971469513705325E-010
   38.2674250000000         1.006090680707345E-009
   38.3804750000000         1.015518676948306E-009
   38.4935250000000         1.025287856412583E-009
   38.6065750000000         1.035256692649908E-009
   38.7196250000000         1.045292365562983E-009
   38.8326750000000         1.055269103999196E-009
   38.9457250000000         1.065078360555891E-009
   39.0587750000000         1.074624571226124E-009
   39.1718250000000         1.083833825784801E-009
   39.2848750000000         1.092652786390143E-009
   39.3979250000000         1.101050081779154E-009
   39.5109750000000         1.109016040046807E-009
   39.6240250000000         1.116561308802814E-009
   39.7370750000000         1.123722230617117E-009
   39.8501250000000         1.130548707660767E-009
   39.9631750000000         1.137111717171213E-009
   40.0762250000000         1.143494778111123E-009
   40.1892750000000         1.149792902807574E-009
   40.3023250000000         1.156106148408112E-009
   40.4153750000000         1.162539675653692E-009
   40.5284250000000         1.169199508606570E-009
   40.6414750000000         1.176185435467796E-009
   40.7545250000000         1.183588570781611E-009
   40.8675750000000         1.191490628598276E-009
   40.9806250000000         1.199956618972508E-009
   41.0936750000000         1.209035277499503E-009
   41.2067250000000         1.218756246101756E-009
   41.3197750000000         1.229130140665479E-009
   41.4328250000000         1.240145103559494E-009
   41.5458750000000         1.251771410586166E-009
   41.6589250000000         1.263959546044120E-009
   41.7719750000000         1.276643833529108E-009
   41.8850250000000         1.289745604033530E-009
   41.9980750000000         1.303174576967374E-009
   42.1111250000000         1.316834842217256E-009
   42.2241750000000         1.330627338858780E-009
   42.3372250000000         1.344455127648290E-009
   42.4502750000000         1.358225620884260E-009
   42.5633250000000         1.371858074677073E-009
   42.6763750000000         1.385281012598155E-009
   42.7894250000000         1.398439993504480E-009
   42.9024750000000         1.411295678935486E-009
   43.0155250000000         1.423827411526598E-009
   43.1285750000000         1.436031627406889E-009
   43.2416250000000         1.447922145192869E-009
   43.3546750000000         1.459526647065813E-009
   43.4677250000000         1.470884054768157E-009
   43.5807750000000         1.482044532890201E-009
   43.6938250000000         1.493061786493764E-009
   43.8068750000000         1.503992190215754E-009
   43.9199250000000         1.514888842986482E-009
   44.0329750000000         1.525799147287817E-009
   44.1460250000000         1.536761335433984E-009
   44.2590750000000         1.547800156997281E-009
   44.3721250000000         1.558928726252564E-009
   44.4851750000000         1.570143602327693E-009
   44.5982250000000         1.581426845670502E-009
   44.7112750000000         1.592747428452277E-009
   44.8243250000000         1.604059702997630E-009
   44.9373750000000         1.615311505649735E-009
   45.0504250000000         1.626441021234818E-009
   45.1634750000000         1.637387551587231E-009
   45.2765250000000         1.648086880554179E-009
   45.3895750000000         1.658484563816357E-009
   45.5026250000000         1.668531063966547E-009
   45.6156750000000         1.678191798573031E-009
   45.7287250000000         1.687441838760424E-009
   45.8417750000000         1.696275852885154E-009
   45.9548250000000         1.704703577607251E-009
   46.0678750000000         1.712748934863336E-009
   46.1809250000000         1.720451197635278E-009
   46.2939750000000         1.727859705326978E-009
   46.4070250000000         1.735032344600973E-009
   46.5200750000000         1.742031660270837E-009
   46.6331250000000         1.748918522018303E-009
   46.7461750000000         1.755748988187013E-009
   46.8592250000000         1.762571294390658E-009
   46.9722750000000         1.769416382100255E-009
   47.0853250000000         1.776302728578510E-009
   47.1983750000000         1.783226174340156E-009
   47.3114250000000         1.790163587145844E-009
   47.4244750000000         1.797070443751828E-009
   47.5375250000000         1.803882950516778E-009
   47.6505750000000         1.810518490665242E-009
   47.7636250000000         1.816883438338853E-009
   47.8766750000000         1.822873095341741E-009
   47.9897250000000         1.828380106024366E-009
   48.1027750000000         1.833298253196592E-009
   48.2158250000000         1.837532032029501E-009
   48.3288750000000         1.840997813304513E-009
   48.4419250000000         1.843633776966256E-009
   48.5549750000000         1.845403910390075E-009
   48.6680250000000         1.846301432384346E-009
   48.7810750000000         1.846349646735376E-009
   48.8941250000000         1.845608988409844E-009
   49.0071750000000         1.844168567051589E-009
   49.1202250000000         1.842153021958366E-009
   49.2332750000000         1.839712805361930E-009
   49.3463250000000         1.837023062774703E-009
   49.4593750000000         1.834274722729119E-009
   49.5724250000000         1.831672435903198E-009
   49.6854750000000         1.829422558814517E-009
   49.7985250000000         1.827727087772671E-009
   49.9115750000000         1.826777253058266E-009
   50.0246250000000         1.826745085315971E-009
   50.1376750000000         1.827775147753080E-009
   50.2507250000000         1.829981860684805E-009
   50.3637750000000         1.833443988716136E-009
   50.4768250000000         1.838201475109394E-009
   50.5898750000000         1.844255263623672E-009
   50.7029250000000         1.851565243970718E-009
   50.8159750000000         1.860055439219610E-009
   50.9290250000000         1.869613453483646E-009
   51.0420750000000         1.880098748768633E-009
   51.1551250000000         1.891348295209273E-009
   51.2681750000000         1.903178291202647E-009
   51.3812250000000         1.915398454749326E-009
   51.4942750000000         1.927815481036539E-009
   51.6073250000000         1.940238745901815E-009
   51.7203750000000         1.952491518024699E-009
   51.8334250000000         1.964415543701598E-009
   51.9464750000000         1.975871858773186E-009
   52.0595250000000         1.986751464698339E-009
   52.1725750000000         1.996977297841283E-009
   52.2856250000000         2.006498214954468E-009
   52.3986750000000         2.015301964905484E-009
   52.5117250000000         2.023399525288904E-009
   52.6247750000000         2.030833633269866E-009
   52.7378250000000         2.037670258887600E-009
   52.8508750000000         2.043994455488972E-009
   52.9639250000000         2.049905383275550E-009
   53.0769750000000         2.055511280692174E-009
   53.1900250000000         2.060923243822223E-009
   53.3030750000000         2.066247380971729E-009
   53.4161250000000         2.071583922928030E-009
   53.5291750000000         2.077018667269804E-009
   53.6422250000000         2.082619483195551E-009
   53.7552750000000         2.088435864622919E-009
   53.8683250000000         2.094494173170305E-009
   53.9813750000000         2.100799736325199E-009
   54.0944250000000         2.107332604172572E-009
   54.2074750000000         2.114056790324472E-009
   54.3205250000000         2.120915651607820E-009
   54.4335750000000         2.127841143256612E-009
   54.5466250000000         2.134752832636429E-009
   54.6596750000000         2.141568371331299E-009
   54.7727250000000         2.148206727500592E-009
   54.8857750000000         2.154591480048542E-009
   54.9988250000000         2.160659547923414E-009
   55.1118750000000         2.166362602774828E-009
   55.2249250000000         2.171674211767997E-009
   55.3379750000000         2.176588847687403E-009
   55.4510250000000         2.181126959747870E-009
   55.5640750000000         2.185335523608241E-009
   55.6771250000000         2.189284376116219E-009
   55.7901750000000         2.193068607255645E-009
   55.9032250000000         2.196803515080361E-009
   56.0162750000000         2.200617220961416E-009
   56.1293250000000         2.204650122538239E-009
   56.2423750000000         2.209047803414421E-009
   56.3554250000000         2.213953387317305E-009
   56.4684750000000         2.219501540955677E-009
   56.5815250000000         2.225811578409722E-009
   56.6945750000000         2.232983865909883E-009
   56.8076250000000         2.241092475887864E-009
   56.9206750000000         2.250181259261843E-009
   57.0337250000000         2.260262058223449E-009
   57.1467750000000         2.271313939239911E-009
   57.2598250000000         2.283282047680554E-009
   57.3728750000000         2.296079456962500E-009
   57.4859250000000         2.309590999742438E-009
   57.5989750000000         2.323678509198528E-009
   57.7120250000000         2.338186125564339E-009
   57.8250750000000         2.352945584308639E-009
   57.9381250000000         2.367785775305367E-009
   58.0511750000000         2.382538615436945E-009
   58.1642250000000         2.397047321321011E-009
   58.2772750000000         2.411171399227407E-009
   58.3903250000000         2.424793046387919E-009
   58.5033750000000         2.437823579923884E-009
   58.6164250000000         2.450202843132588E-009
   58.7294750000000         2.461900555206454E-009
   58.8425250000000         2.472920797894432E-009
   58.9555750000000         2.483290830805028E-009
   59.0686250000000         2.493065544203920E-009
   59.1816750000000         2.502317418753962E-009
   59.2947250000000         2.511128452873838E-009
   59.4077750000000         2.519587623540109E-009
   59.5208250000000         2.527778305473058E-009
   59.6338750000000         2.535771106227032E-009
   59.7469250000000         2.543619811761563E-009
   59.8599750000000         2.551353487234577E-009
   59.9730250000000         2.558968144117920E-009
   60.0860750000000         2.566430115460482E-009
   60.1991250000000         2.573670531055600E-009
   60.3121750000000         2.580586465954941E-009
   60.4252250000000         2.587049177686622E-009
   60.5382750000000         2.592902850904027E-009
   60.6513250000000         2.597976051556946E-009
   60.7643750000000         2.602090929130315E-009
   60.8774250000000         2.605070986855149E-009
   60.9904750000000         2.606753346882598E-009
   61.1035250000000         2.607000832340947E-009
   61.2165750000000         2.605707512611136E-009
   61.3296250000000         2.602815529268516E-009
   61.4426750000000         2.598313199871000E-009
   61.5557250000000         2.592250957180687E-009
   61.6687750000000         2.584737701854826E-009
   61.7818250000000         2.575943257708879E-009
   61.8948750000000         2.566097890967006E-009
   62.0079250000000         2.555485753190782E-009
   62.1209750000000         2.544438393668322E-009
   62.2340250000000         2.533326476523388E-009
   62.3470750000000         2.522545635208803E-009
   62.4601250000000         2.512508427129979E-009
   62.5731750000000         2.503623425791883E-009
   62.6862250000000         2.496292338437913E-009
   62.7992750000000         2.490886246160065E-009
   62.9123250000000         2.487742651489015E-009
   63.0253750000000         2.487147634926831E-009
   63.1384250000000         2.489334565196096E-009
   63.2514750000000         2.494470011691065E-009
   63.3645250000000         2.502660246337165E-009
   63.4775750000000         2.513940194593985E-009
   63.5906250000000         2.528283903831007E-009
   63.7036750000000         2.545602502476484E-009
   63.8167250000000         2.565752274334975E-009
   63.9297750000000         2.588543045654709E-009
   64.0428250000000         2.613746704531659E-009
   64.1558750000000         2.641104727442795E-009
   64.2689250000000         2.670339123140596E-009
   64.3819750000000         2.701162073388749E-009
   64.4950250000000         2.733278980639317E-009
   64.6080750000000         2.766405804363757E-009
   64.7211250000000         2.800260433536663E-009
   64.8341750000000         2.834579098060865E-009
   64.9472250000000         2.869107820517309E-009
   65.0602750000000         2.903611260470880E-009
   65.1733250000000         2.937865816414177E-009
   65.2863750000000         2.971660603570806E-009
   65.3994250000000         3.004791505498877E-009
   65.5124750000000         3.037063583049983E-009