 -0.847875000000000        -7.744291761682095E-025
 -0.734825000000000        -8.905168289610291E-023
 -0.621775000000000        -7.948405850844300E-022
 -0.508725000000000        -4.413984524745960E-021
 -0.395675000000000        -1.916045800051052E-020
 -0.282625000000000        -6.957796374255354E-020
 -0.169575000000000        -2.175018191621523E-019
 -5.652500000000005E-002   -5.957974468331226E-019
  5.652499999999994E-002   -1.451527397269925E-018
  0.169575000000000        -3.189884718059732E-018
  0.282625000000000        -6.410674528745195E-018
  0.395675000000000        -1.193582765534322E-017
  0.508725000000000        -2.083395205260893E-017
  0.621775000000000        -3.444772446867359E-017
  0.734825000000000        -5.442498090862599E-017
  0.847875000000000        -8.274891257705227E-017
  0.960925000000000        -1.217610973196976E-016
   1.07397500000000        -1.741721102848456E-016
   1.18702500000000        -2.430565543288381E-016
   1.30007500000000        -3.318305178849513E-016
   1.41312500000000        -4.442093762103551E-016
   1.52617500000000        -5.841490612481034E-016
   1.63922500000000        -7.557681864714862E-016
   1.75227500000000        -9.632533571888017E-016
   1.86532500000000        -1.210752005077422E-015
   1.97837500000000        -1.502251184186856E-015
   2.09142500000000        -1.841448728903545E-015
   2.20447500000000        -2.231620592804773E-015
   2.31752500000000        -2.675489269353092E-015
   2.43057500000000        -3.175092999776462E-015
   2.54362500000000        -3.731668258239079E-015
   2.65667500000000        -4.345554841691945E-015
   2.76972500000000        -5.016109659037008E-015
   2.88277500000000        -5.741648044269108E-015
   2.99582500000000        -6.519418227566613E-015
   3.10887500000000        -7.345607915373852E-015
   3.22192500000000        -8.215373702144522E-015
   3.33497500000000        -9.122916670349477E-015
   3.44802500000000        -1.006158678075035E-014
   3.56107500000000        -1.102401304183530E-014
   3.67412500000000        -1.200226766710928E-014
   3.78717500000000        -1.298804546871857E-014
   3.90022500000000        -1.397286327087771E-014
   4.01327500000000        -1.494826276139577E-014
   4.12632500000000        -1.590601831979945E-014
   4.23937500000000        -1.683833917924135E-014
   4.35242500000000        -1.773805194948428E-014
   4.46547500000000        -1.859875648563866E-014
   4.57852500000000        -1.941496154694175E-014
   4.69157500000000        -2.018218511254310E-014
   4.80462500000000        -2.089700116176743E-014
   4.91767500000000        -2.155705377932465E-014
   5.03072500000000        -2.216105095269095E-014
   5.14377500000000        -2.270869882464603E-014
   5.25682500000000        -2.320059531601514E-014
   5.36987500000000        -2.363811362944781E-014
   5.48292500000000        -2.402325591049543E-014
   5.59597500000000        -2.435849484109145E-014
   5.70902500000000        -2.464661699163476E-014
   5.82207500000000        -2.489057180293544E-014
   5.93512500000000        -2.509333935724379E-014
   6.04817500000000        -2.525782133590884E-014
   6.16122500000000        -2.538675978529459E-014
   6.27427500000000        -2.548270615497032E-014
   6.38732500000000        -2.554803320871672E-014
   6.50037500000000        -2.558497714435084E-014
   6.61342500000000        -2.559573714382850E-014
   6.72647500000000        -2.558259172443521E-014
   6.83952500000000        -2.554805074730153E-014
   6.95257500000000        -2.549504516815956E-014
   7.06562500000000        -2.542710782083455E-014
   7.17867500000000        -2.534855077849085E-014
   7.29172500000000        -2.526463439860551E-014
   7.40477500000000        -2.518169691528164E-014
   7.51782500000000        -2.510725511827707E-014
   7.63087500000000        -2.505004896703452E-014
   7.74392500000000        -2.502001995509508E-014
   7.85697500000000        -2.502823444335126E-014
   7.97002500000000        -2.508673435890141E-014
   8.08307500000000        -2.520833243176492E-014
   8.19612500000000        -2.540633483491675E-014
   8.30917500000000        -2.569422122030384E-014
   8.42222500000000        -2.608529647685362E-014
   8.53527500000000        -2.659229878690399E-014
   8.64832500000000        -2.722700946531469E-014
   8.76137500000000        -2.799987508111195E-014
   8.87442500000000        -2.891965432153684E-014
   8.98747500000000        -2.999311467897113E-014
   9.10052500000000        -3.122478358086343E-014
   9.21357500000000        -3.261677978991433E-014
   9.32662500000000        -3.416872421461762E-014
   9.43967500000000        -3.587774224508219E-014
   9.55272500000000        -3.773855912228082E-014
   9.66577500000000        -3.974368145770328E-014
   9.77882500000000        -4.188365531525279E-014
   9.89187500000000        -4.414741341976611E-014
   10.0049250000000        -4.652266163742186E-014
   10.1179750000000        -4.899630210726776E-014
   10.2310250000000        -5.155488685275136E-014
   10.3440750000000        -5.418506206130450E-014
   10.4571250000000        -5.687399177680981E-014
   10.5701750000000        -5.960973735959216E-014
   10.6832250000000        -6.238159064040214E-014
   10.7962750000000        -6.518031402899561E-014
   10.9093250000000        -6.799831928249796E-014
   11.0223750000000        -7.082974718395261E-014
   11.1354250000000        -7.367045515601656E-014
   11.2484750000000        -7.651794865512698E-014
   11.3615250000000        -7.937120553438147E-014
   11.4745750000000        -8.223045418705552E-014
   11.5876250000000        -8.509691318759649E-014
   11.7006750000000        -8.797248919005103E-014
   11.8137250000000        -9.085947630497548E-014
   11.9267750000000        -9.376027447314907E-014
   12.0398250000000        -9.667713739018727E-014
   12.1528750000000        -9.961195879387309E-014
   12.2659250000000        -1.025661421882110E-013
   12.3789750000000        -1.055405379145342E-013
   12.4920250000000        -1.085354552891900E-013
   12.6050750000000        -1.115507609937452E-013
   12.7181250000000        -1.145860515360334E-013
   12.8311750000000        -1.176408897059048E-013
   12.9442250000000        -1.207150915282950E-013
   13.0572750000000        -1.238090572122331E-013
   13.1703250000000        -1.269240994849441E-013
   13.2833750000000        -1.300627734891593E-013
   13.3964250000000        -1.332291821284362E-013
   13.5094750000000        -1.364292204595759E-013
   13.6225250000000        -1.396707459865462E-013
   13.7355750000000        -1.429636678089155E-013
   13.8486250000000        -1.463199450072469E-013
   13.9616750000000        -1.497534563213901E-013
   14.0747250000000        -1.532797802726342E-013
   14.1877750000000        -1.569158843153949E-013
   14.3008250000000        -1.606796913488362E-013
   14.4138750000000        -1.645895953720556E-013
   14.5269250000000        -1.686639086861197E-013
   14.6399750000000        -1.729202754649869E-013
   14.7530250000000        -1.773750855440100E-013
   14.8660750000000        -1.820429071886055E-013
   14.9791250000000        -1.869359493346539E-013
   15.0921750000000        -1.920636058225829E-013
   15.2052250000000        -1.974320971262014E-013
   15.3182750000000        -2.030442014721115E-013
   15.4313250000000        -2.088991233616726E-013
   15.5443750000000        -2.149924907929571E-013
   15.6574250000000        -2.213164749954074E-013
   15.7704750000000        -2.278600474682032E-013
   15.8835250000000        -2.346093361778572E-013
   15.9965750000000        -2.415480901255959E-013
   16.1096250000000        -2.486582207814132E-013
   16.2226750000000        -2.559203828723247E-013
   16.3357250000000        -2.633146154993877E-013
   16.4487750000000        -2.708209567790427E-013
   16.5618250000000        -2.784200312511377E-013
   16.6748750000000        -2.860935986854216E-013
   16.7879250000000        -2.938250279841388E-013
   16.9009750000000        -3.015996652710488E-013
   17.0140250000000        -3.094051075327565E-013
   17.1270750000000        -3.172313700651890E-013
   17.2401250000000        -3.250709253380696E-013
   17.3531750000000        -3.329186292257855E-013
   17.4662250000000        -3.407715483424500E-013
   17.5792750000000        -3.486286962406851E-013
   17.6923250000000        -3.564907018177152E-013
   17.8053750000000        -3.643594130261001E-013
   17.9184250000000        -3.722374829842774E-013
   18.0314750000000        -3.801279475980246E-013
   18.1445250000000        -3.880338228747785E-013
   18.2575750000000        -3.959577329008079E-013
   18.3706250000000        -4.039015986703117E-013
   18.4836750000000        -4.118664070526873E-013
   18.5967250000000        -4.198520525295264E-013
   18.7097750000000        -4.278572884363312E-013
   18.8228250000000        -4.358797469558988E-013
   18.9358750000000        -4.439160627887392E-013
   19.0489250000000        -4.519620846469478E-013
   19.1619750000000        -4.600131256567539E-013
   19.2750250000000        -4.680643084270161E-013
   19.3880750000000        -4.761109260221300E-013
   19.5011250000000        -4.841488160771330E-013
   19.6141750000000        -4.921747471527896E-013
   19.7272250000000        -5.001867649438971E-013
   19.8402750000000        -5.081845162511907E-013
   19.9533250000000        -5.161695077068919E-013
   20.0663750000000        -5.241453015558577E-013
   20.1794250000000        -5.321176283032722E-013
   20.2924750000000        -5.400944158033663E-013
   20.4055250000000        -5.480857345239579E-013
   20.5185750000000        -5.561036653459273E-013
   20.6316250000000        -5.641620847327527E-013
   20.7446750000000        -5.722763758686797E-013
   20.8577250000000        -5.804630951549300E-013
   20.9707750000000        -5.887395901544751E-013
   21.0838250000000        -5.971235984271443E-013
   21.1968750000000        -6.056328279136213E-013
   21.3099250000000        -6.142845378090156E-013
   21.4229750000000        -6.230951549533846E-013
   21.5360250000000        -6.320799113544939E-013
   21.6490750000000        -6.412525303687103E-013
   21.7621250000000        -6.506249692897674E-013
   21.8751750000000        -6.602072153787166E-013
   21.9882250000000        -6.700071507714215E-013
   22.1012750000000        -6.800304839751128E-013
   22.2143250000000        -6.902807385484409E-013
   22.3273750000000        -7.007593038128332E-013
   22.4404250000000        -7.114655386479005E-013
   22.5534750000000        -7.223969187020336E-013
   22.6665250000000        -7.335492169809634E-013
   22.7795750000000        -7.449167235664216E-013
   22.8926250000000        -7.564924728237540E-013
   23.0056750000000        -7.682684737456611E-013
   23.1187250000000        -7.802359574367660E-013
   23.2317750000000        -7.923856084803645E-013
   23.3448250000000        -8.047077775713443E-013
   23.4578750000000        -8.171926838891166E-013
   23.5709250000000        -8.298305924236516E-013
   23.6839750000000        -8.426119715298827E-013
   23.7970250000000        -8.555276237574593E-013
   23.9100750000000        -8.685687827658320E-013
   24.0231250000000        -8.817272081074396E-013
   24.1361750000000        -8.949952467659718E-013
   24.2492250000000        -9.083658783293113E-013
   24.3622750000000        -9.218327466702274E-013
   24.4753250000000        -9.353901851091043E-013
   24.5883750000000        -9.490332319557209E-013
   24.7014250000000        -9.627576444022708E-013
   24.8144750000000        -9.765599088474537E-013
   24.9275250000000        -9.904372447368531E-013
   25.0405750000000        -1.004387623799700E-012
   25.1536250000000        -1.018409787367766E-012
   25.2666750000000        -1.032503267766998E-012
   25.3797250000000        -1.046668410698787E-012
   25.4927750000000        -1.060906400455842E-012
   25.6058250000000        -1.075219294641002E-012
   25.7188750000000        -1.089610058307575E-012
   25.8319250000000        -1.104082590436813E-012
   25.9449750000000        -1.118641755246585E-012
   26.0580250000000        -1.133293407093969E-012
   26.1710750000000        -1.148044412849219E-012
   26.2841250000000        -1.162902650610360E-012
   26.3971750000000        -1.177877006743471E-012
   26.5102250000000        -1.192977373691706E-012
   26.6232750000000        -1.208214616200610E-012
   26.7363250000000        -1.223600520229962E-012
   26.8493750000000        -1.239147731939065E-012
   26.9624250000000        -1.254869668605613E-012
   27.0754750000000        -1.270780410867837E-012
   27.1885250000000        -1.286894590402883E-012
   27.3015750000000        -1.303227233952748E-012
   27.4146250000000        -1.319793597547540E-012
   27.5276750000000        -1.336608981888967E-012
   27.6407250000000        -1.353688526808134E-012
   27.7537750000000        -1.371046999209996E-012
   27.8668250000000        -1.388698562125549E-012
   27.9798750000000        -1.406656543557246E-012
   28.0929250000000        -1.424933193002350E-012
   28.2059750000000        -1.443539451368813E-012
   28.3190250000000        -1.462484722340569E-012
   28.4320750000000        -1.481776653846289E-012
   28.5451250000000        -1.501420950530911E-012
   28.6581750000000        -1.521421194635267E-012
   28.7712250000000        -1.541778701153855E-012
   28.8842750000000        -1.562492411379340E-012
   28.9973250000000        -1.583558818123125E-012
   29.1103750000000        -1.604971935975376E-012
   29.2234250000000        -1.626723319151802E-012
   29.3364750000000        -1.648802120819427E-012
   29.4495250000000        -1.671195189236045E-012
   29.5625750000000        -1.693887227000615E-012
   29.6756250000000        -1.716860991489751E-012
   29.7886750000000        -1.740097530176925E-012
   29.9017250000000        -1.763576468688339E-012
   30.0147750000000        -1.787276331804107E-012
   30.1278250000000        -1.811174884244080E-012
   30.2408750000000        -1.835249519676351E-012
   30.3539250000000        -1.859477661818419E-012
   30.4669750000000        -1.883837172294208E-012
   30.5800250000000        -1.908306779425465E-012
   30.6930750000000        -1.932866497716870E-012
   30.8061250000000        -1.957498044955461E-012
   30.9191750000000        -1.982185235798163E-012
   31.0322250000000        -2.006914353045720E-012
   31.1452750000000        -2.031674479990766E-012
   31.2583250000000        -2.056457790427917E-012
   31.3713750000000        -2.081259771709787E-012
   31.4844250000000        -2.106079381815349E-012
   31.5974750000000        -2.130919144912305E-012
   31.7105250000000        -2.155785145427245E-012
   31.8235750000000        -2.180686926463578E-012
   31.9366250000000        -2.205637295923172E-012
   32.0496750000000        -2.230652030319179E-012
   32.1627250000000        -2.255749477214670E-012
   32.2757750000000        -2.280950049246628E-012
   32.3888250000000        -2.306275625736178E-012
   32.5018750000000        -2.331748878092719E-012
   32.6149250000000        -2.357392523591657E-012
   32.7279750000000        -2.383228530259887E-012
   32.8410250000000        -2.409277304885495E-012
   32.9540750000000        -2.435556881639858E-012
   33.0671250000000        -2.462082146967105E-012
   33.1801750000000        -2.488864145010381E-012
   33.2932250000000        -2.515909474713554E-012
   33.4062750000000        -2.543219837044180E-012
   33.5193250000000        -2.570791748767864E-012
   33.6323750000000        -2.598616461461925E-012
   33.7454250000000        -2.626680106968336E-012
   33.8584750000000        -2.654964069676304E-012
   33.9715250000000        -2.683445613878386E-012
   34.0845750000000        -2.712098745966809E-012
   34.1976250000000        -2.740895307149596E-012
   34.3106750000000        -2.769806254160490E-012
   34.4237250000000        -2.798803091586309E-012
   34.5367750000000        -2.827859414077170E-012
   34.6498250000000        -2.856952485623670E-012
   34.7628750000000        -2.886064785568223E-012
   34.8759250000000        -2.915185437594802E-012
   34.9889750000000        -2.944311455238831E-012
   35.1020250000000        -2.973448717124345E-012
   35.2150750000000        -3.002612587223473E-012
   35.3281250000000        -3.031828133590131E-012
   35.4411750000000        -3.061129879772380E-012
   35.5542250000000        -3.090561052326807E-012
   35.6672750000000        -3.120172332590585E-012
   35.7803250000000        -3.150020094561777E-012
   35.8933750000000        -3.180164181679603E-012
   36.0064250000000        -3.210665296608196E-012
   36.1194750000000        -3.241582065872474E-012
   36.2325250000000        -3.272967929537763E-012
   36.3455750000000        -3.304867980643076E-012
   36.4586250000000        -3.337315895713739E-012
   36.5716750000000        -3.370331141311173E-012
   36.6847250000000        -3.403916637198937E-012
   36.7977750000000        -3.438057016812953E-012
   36.9108250000000        -3.472717643538112E-012
   37.0238750000000        -3.507844535469572E-012
   37.1369250000000        -3.543365271157008E-012
   37.2499750000000        -3.579190950261821E-012
   37.3630250000000        -3.615219209282010E-012
   37.4760750000000        -3.651338257215149E-012
   37.5891250000000        -3.687431838945994E-012
   37.7021750000000        -3.723384947100527E-012
   37.8152250000000        -3.759090085837687E-012
   37.9282750000000        -3.794453825686180E-012
   38.0413250000000        -3.829403330483330E-012
   38.1543750000000        -3.863892522721134E-012
   38.2674250000000        -3.897907524632818E-012
   38.3804750000000        -3.931471017831110E-012
   38.4935250000000        -3.964645179863521E-012
   38.6065750000000        -3.997532880327636E-012
   38.7196250000000        -4.030276896054133E-012
   38.8326750000000        -4.063056943741954E-012
   38.9457250000000        -4.096084463769519E-012
   39.0587750000000        -4.129595157823222E-012
   39.1718250000000        -4.163839410651470E-012
   39.2848750000000        -4.199070865872573E-012
   39.3979250000000        -4.235533514904342E-012
   39.5109750000000        -4.273447811288259E-012
   39.6240250000000        -4.312996379900836E-012
   39.7370750000000        -4.354310057208818E-012
   39.8501250000000        -4.397454971107998E-012
   39.9631750000000        -4.442421438520882E-012
   40.0762250000000        -4.489115488478883E-012
   40.1892750000000        -4.537353698190127E-012
   40.3023250000000        -4.586862018531600E-012
   40.4153750000000        -4.637279088216138E-012
   40.5284250000000        -4.688164391499249E-012
   40.6414750000000        -4.739011425193761E-012
   40.7545250000000        -4.789265766495975E-012
   40.8675750000000        -4.838347715275225E-012
   40.9806250000000        -4.885678925482558E-012
   41.0936750000000        -4.930712129945903E-012
   41.2067250000000        -4.972962878648938E-012
   41.3197750000000        -5.012041952124549E-012
   41.4328250000000        -5.047686889261741E-012
   41.5458750000000        -5.079791023805498E-012
   41.6589250000000        -5.108428318292312E-012
   41.7719750000000        -5.133872278959057E-012
   41.8850250000000        -5.156607375846514E-012
   41.9980750000000        -5.177331533515165E-012
   42.1111250000000        -5.196948561924804E-012
   42.2241750000000        -5.216549739535170E-012
   42.3372250000000        -5.237384192405023E-012
   42.4502750000000        -5.260818219096962E-012
   42.5633250000000        -5.288284229822737E-012
   42.6763750000000        -5.321220533878777E-012
   42.7894250000000        -5.361003810313179E-012
   42.9024750000000        -5.408876604375577E-012
   43.0155250000000        -5.465872685071237E-012
   43.1285750000000        -5.532743523220003E-012
   43.2416250000000        -5.609889411808910E-012
   43.3546750000000        -5.697298954702062E-012
   43.4677250000000        -5.794500633676463E-012
   43.5807750000000        -5.900530003288244E-012
   43.6938250000000        -6.013915734626133E-012
   43.8068750000000        -6.132687203489203E-012
   43.9199250000000        -6.254405586517361E-012
   44.0329750000000        -6.376219605323790E-012
   44.1460250000000        -6.494946058817139E-012
   44.2590750000000        -6.607174141688503E-012
   44.3721250000000        -6.709391407686260E-012
   44.4851750000000        -6.798128034206707E-012
   44.5982250000000        -6.870114873826922E-012
   44.7112750000000        -6.922449714957867E-012
   44.8243250000000        -6.952765240689637E-012
   44.9373750000000        -6.959391441097851E-012
   45.0504250000000        -6.941504762774115E-012
   45.1634750000000        -6.899256079306716E-012
   45.2765250000000        -6.833869718012422E-012
   45.3895750000000        -6.747706284442115E-012
   45.5026250000000        -6.644282885434335E-012
   45.6156750000000        -6.528245601762005E-012
   45.7287250000000        -6.405290595888897E-012
   45.8417750000000        -6.282032163236900E-012
   45.9548250000000        -6.165818129983286E-012
   46.0678750000000        -6.064495323823315E-012
   46.1809250000000        -5.986130277886551E-012
   46.2939750000000        -5.938692670247750E-012
   46.4070250000000        -5.929711378874746E-012
   46.5200750000000        -5.965915106398407E-012
   46.6331250000000        -6.052871293109437E-012
   46.7461750000000        -6.194638403567963E-012
   46.8592250000000        -6.393447523577686E-012
   46.9722750000000        -6.649429425751451E-012
   47.0853250000000        -6.960402829760206E-012
   47.1983750000000        -7.321738482703937E-012
   47.3114250000000        -7.726311815759522E-012
   47.4244750000000        -8.164554385635202E-012
   47.5375250000000        -8.624611135903805E-012
   47.6505750000000        -9.092606714074724E-012
   47.7636250000000        -9.553019836710085E-012
   47.8766750000000        -9.989160130559965E-012
   47.9897250000000        -1.038373712646788E-011
   48.1027750000000        -1.071950635961064E-011
   48.2158250000000        -1.097997300811756E-011
   48.3288750000000        -1.115012939994740E-011
   48.4419250000000        -1.121719924834618E-011
   48.5549750000000        -1.117135882444749E-011
   48.6680250000000        -1.100640356276716E-011
   48.7810750000000        -1.072032812652246E-011
   48.8941250000000        -1.031578868229513E-011
   49.0071750000000        -9.800418191890961E-012
   49.1202250000000        -9.186969004983082E-012
   49.2332750000000        -8.493261796573571E-012
   49.3463250000000        -7.741925933302018E-012
   49.4593750000000        -6.959923453516505E-012
   49.5724250000000        -6.177856974632236E-012
   49.6854750000000        -5.429070522140991E-012
   49.7985250000000        -4.748561316974571E-012
   49.9115750000000        -4.171729765114120E-012
   50.0246250000000        -3.733003647096675E-012
   50.1376750000000        -3.464380546734619E-012
   50.2507250000000        -3.393939618818121E-012
   50.3637750000000        -3.544379324872186E-012
   50.4768250000000        -3.931641485041632E-012
   50.5898750000000        -4.563683701461474E-012
   50.7029250000000        -5.439461546978928E-012
   50.8159750000000        -6.548178810725819E-012
   50.9290250000000        -7.868858387321870E-012
   51.0420750000000        -9.370278206725346E-012
   51.1551250000000        -1.101130601711428E-011
   51.2681750000000        -1.274165395066379E-011
   51.3812250000000        -1.450305919145271E-011
   51.4942750000000        -1.623088092328818E-011
   51.6073250000000        -1.785608668503505E-011
   51.7203750000000        -1.930758388354724E-011
   51.8334250000000        -2.051483510470580E-011
   51.9464750000000        -2.141067978204565E-011
   52.0595250000000        -2.193427033303436E-011
   52.1725750000000        -2.203401882247685E-011
   52.2856250000000        -2.167044116176131E-011
   52.3986750000000        -2.081878039161340E-011
   52.5117250000000        -1.947128921340784E-011
   52.6247750000000        -1.763905502488100E-011
   52.7378250000000        -1.535325847839170E-011
   52.8508750000000        -1.266576906064291E-011
   52.9639250000000        -9.648998355752557E-012
   53.0769750000000        -6.394953193731273E-012
   53.1900250000000        -3.013456277263798E-012
   53.3030750000000         3.704694614592778E-013
   53.4161250000000         3.620025445065215E-012
   53.5291750000000         6.590811133533276E-012
   53.6422250000000         9.135654061107293E-012
   53.7552750000000         1.110997140111888E-011
   53.8683250000000         1.237750831342496E-011
   53.9813750000000         1.281627163080922E-011
   54.0944250000000         1.232445535945529E-011
   54.2074750000000         1.082613811319170E-011
   54.3205250000000         8.276522961979033E-012
   54.4335750000000         4.666488140072503E-012
   54.5466250000000         2.622326621059180E-014
   54.6596750000000        -5.572259439752368E-012
   54.7727250000000        -1.201392587752025E-011
   54.8857750000000        -1.914098754423404E-011
   54.9988250000000        -2.675475044085072E-011
   55.1118750000000        -3.461911273069797E-011
   55.2249250000000        -4.246572512219066E-011
   55.3379750000000        -5.000076994149957E-011
   55.4510250000000        -5.691325401123550E-011
   55.5640750000000        -6.288464863677682E-011
   55.6771250000000        -6.759964931670969E-011
   55.7901750000000        -7.075777040319342E-011
   55.9032250000000        -7.208543819339365E-011
   56.0162750000000        -7.134820183964026E-011
   56.1293250000000        -6.836264726748749E-011
   56.2423750000000        -6.300757678635593E-011
   56.3554250000000        -5.523400783284609E-011
   56.4684750000000        -4.507354961623548E-011
   56.5815250000000        -3.264473713268377E-011
   56.6945750000000        -1.815693852707083E-011
   56.8076250000000        -1.911503825621884E-012
   56.9206750000000         1.570010985769685E-011
   57.0337250000000         3.420142075149045E-011
   57.1467750000000         5.303930379546688E-011
   57.2598250000000         7.159565974451358E-011
   57.3728750000000         8.920225126510852E-011
   57.4859250000000         1.051584718589514E-010
   57.5989750000000         1.187516996366317E-010
   57.7120250000000         1.292797773706378E-010
   57.8250750000000         1.360750568135187E-010
   57.9381250000000         1.385293526347338E-010
   58.0511750000000         1.361190733145389E-010
   58.1642250000000         1.284297364175896E-010
   58.2772750000000         1.151790368152718E-010
   58.3903250000000         9.623762130586391E-011
   58.5033750000000         7.164673375040319E-011
   58.6164250000000         4.163193250298189E-011
   58.7294750000000         6.612147104547555E-012
   58.8425250000000        -3.279656629777592E-011
   58.9555750000000        -7.578309277770347E-011
   59.0686250000000        -1.213495291509760E-010
   59.1816750000000        -1.683258729596802E-010
   59.2947250000000        -2.153911646939457E-010
   59.4077750000000        -2.611009241650443E-010
   59.5208250000000        -3.039205203340046E-010
   59.6338750000000        -3.422639102174388E-010
   59.7469250000000        -3.745369827780063E-010
   59.8599750000000        -3.991845541807291E-010
   59.9730250000000        -4.147398876766502E-010
   60.0860750000000        -4.198754609316392E-010
   60.1991250000000        -4.134535814397974E-010
   60.3121750000000        -3.945753620603776E-010
   60.4252250000000        -3.626265182303838E-010
   60.5382750000000        -3.173184395444881E-010
   60.6513250000000        -2.587230238337050E-010
   60.7643750000000        -1.872998429480374E-010
   60.8774250000000        -1.039143363534733E-010
   60.9904750000000        -9.845900152582177E-012
   61.1035250000000         9.321504726990527E-011
   61.2165750000000         2.031816898753188E-010
   61.3296250000000         3.175975109146526E-010
   61.4426750000000         4.336751325645810E-010
   61.5557250000000         5.483470375725031E-010
   61.6687750000000         6.583275702477560E-010
   61.7818250000000         7.601852699707272E-010
   61.8948750000000         8.504242536116644E-010
   62.0079250000000         9.255730435562202E-010
   62.1209750000000         9.822789448458092E-010
   62.2340250000000         1.017405817740212E-009
   62.3470750000000         1.028132879329345E-009
   62.4601250000000         1.012052007440189E-009
   62.5731750000000         9.672609188213582E-010
   62.6862250000000         8.924495566279830E-010
   62.7992750000000         7.869770534235075E-010
   62.9123250000000         6.509367373276210E-010
   63.0253750000000         4.852068208577101E-010
   63.1384250000000         2.914846527508020E-010
   63.2514750000000         7.230271914169544E-011
   63.3645250000000        -1.689750535174725E-010
   63.4775750000000        -4.281777226637438E-010
   63.5906250000000        -7.003730471216306E-010
   63.7036750000000        -9.799345676270203E-010
   63.8167250000000        -1.260629601464188E-009
   63.9297750000000        -1.535727173749408E-009
   64.0428250000000        -1.798124382379733E-009
   64.1558750000000        -2.040489184533501E-009
   64.2689250000000        -2.255417112954113E-009
   64.3819750000000        -2.435598992816734E-009
   64.4950250000000        -2.573996346787887E-009
   64.6080750000000        -2.664020857761104E-009
   64.7211250000000        -2.699714015009932E-009
   64.8341750000000        -2.675922908109628E-009
   64.9472250000000        -2.588468059499630E-009
   65.0602750000000        -2.434299204772859E-009
   65.1733250000000        -2.211635041241421E-009
   65.2863750000000        -1.920083169083656E-009
   65.3994250000000        -1.560736742393892E-009
   65.5124750000000        -1.136244724442463E-009