 -0.847875000000000         4.473265780857964E-017
 -0.734825000000000         6.351255062376158E-012
 -0.621775000000000         4.515484456746469E-011
 -0.508725000000000         2.191253495709738E-010
 -0.395675000000000         8.569616091829656E-010
 -0.282625000000000         2.818559020270914E-009
 -0.169575000000000         7.952471603212686E-009
 -5.652500000000005E-002    1.955218990201521E-008
  5.652499999999994E-002    4.255215510806969E-008
  0.169575000000000         8.332796837101121E-008
  0.282625000000000         1.492791022646180E-007
  0.395675000000000         2.485225986995387E-007
  0.508725000000000         3.898934145873667E-007
  0.621775000000000         5.831038661838117E-007
  0.734825000000000         8.388123617117594E-007
  0.847875000000000         1.168436382376368E-006
  0.960925000000000         1.583767311262992E-006
   1.07397500000000         2.096388575087374E-006
   1.18702500000000         2.716983098865416E-006
   1.30007500000000         3.454725127406102E-006
   1.41312500000000         4.316447213749004E-006
   1.52617500000000         5.305975142979336E-006
   1.63922500000000         6.423438241743856E-006
   1.75227500000000         7.664808998698787E-006
   1.86532500000000         9.021159913134157E-006
   1.97837500000000         1.047851630041620E-005
   2.09142500000000         1.201749342185573E-005
   2.20447500000000         1.361447156801783E-005
   2.31752500000000         1.523764422379209E-005
   2.43057500000000         1.685252891685777E-005
   2.54362500000000         1.842367306835703E-005
   2.65667500000000         1.990501611297991E-005
   2.76972500000000         2.125543902932732E-005
   2.88277500000000         2.242734458121293E-005
   2.99582500000000         2.337971525270609E-005
   3.10887500000000         2.406497178877113E-005
   3.22192500000000         2.444966782731300E-005
   3.33497500000000         2.449178896508061E-005
   3.44802500000000         2.417156324991517E-005
   3.56107500000000         2.345735607949816E-005
   3.67412500000000         2.234788769665237E-005
   3.78717500000000         2.082560555932038E-005
   3.90022500000000         1.891024005491520E-005
   4.01327500000000         1.659959331771646E-005
   4.12632500000000         1.392978853017187E-005
   4.23937500000000         1.092611514053514E-005
   4.35242500000000         7.626385197861220E-006
   4.46547500000000         4.073007292109238E-006
   4.57852500000000         3.128814414492414E-007
   4.69157500000000        -3.606730060521147E-006
   4.80462500000000        -7.637718152476326E-006
   4.91767500000000        -1.173578239441390E-005
   5.03072500000000        -1.585769539212875E-005
   5.14377500000000        -1.996854948098413E-005
   5.25682500000000        -2.403920364541690E-005
   5.36987500000000        -2.804786712231354E-005
   5.48292500000000        -3.198053974220629E-005
   5.59597500000000        -3.583144550645908E-005
   5.70902500000000        -3.960209945078021E-005
   5.82207500000000        -4.329839854851743E-005
   5.93512500000000        -4.693131789383075E-005
   6.04817500000000        -5.051324535641174E-005
   6.16122500000000        -5.405653729194222E-005
   6.27427500000000        -5.757041932555165E-005
   6.38732500000000        -6.105896617325526E-005
   6.50037500000000        -6.451788634326303E-005
   6.61342500000000        -6.793370788467254E-005
   6.72647500000000        -7.128120985219011E-005
   6.83952500000000        -7.452290724322053E-005
   6.95257500000000        -7.760817728226594E-005
   7.06562500000000        -8.047475072473044E-005
   7.17867500000000        -8.304885215198477E-005
   7.29172500000000        -8.524918997314465E-005
   7.40477500000000        -8.698696976566905E-005
   7.51782500000000        -8.817152961023928E-005
   7.63087500000000        -8.871515813646389E-005
   7.74392500000000        -8.853388858885857E-005
   7.85697500000000        -8.755361891456457E-005
   7.97002500000000        -8.571716982089902E-005
   8.08307500000000        -8.298398010326247E-005
   8.19612500000000        -7.933703310882309E-005
   8.30917500000000        -7.478418768803437E-005
   8.42222500000000        -6.935823349716046E-005
   8.53527500000000        -6.311827475430184E-005
   8.64832500000000        -5.614673970795758E-005
   8.76137500000000        -4.855336464945110E-005
   8.87442500000000        -4.046649876468074E-005
   8.98747500000000        -3.203285813124036E-005
   9.10052500000000        -2.340875778888236E-005
   9.21357500000000        -1.475635297704434E-005
   9.32662500000000        -6.237147442939430E-006
   9.43967500000000         1.993106419079813E-006
   9.55272500000000         9.794273880302145E-006
   9.66577500000000         1.704375782619565E-005
   9.77882500000000         2.364372242256592E-005
   9.89187500000000         2.952462271258187E-005
   10.0049250000000         3.464784600895058E-005
   10.1179750000000         3.900487717186500E-005
   10.2310250000000         4.261927617076374E-005
   10.3440750000000         4.554496503580018E-005
   10.4571250000000         4.786284395600959E-005
   10.5701750000000         4.967442716328690E-005
   10.6832250000000         5.109747205417462E-005
   10.7962750000000         5.225928117946386E-005
   10.9093250000000         5.329017658408295E-005
   11.0223750000000         5.431559546861619E-005
   11.1354250000000         5.544701855988758E-005
   11.2484750000000         5.678852840576469E-005
   11.3615250000000         5.840910192652992E-005
   11.4745750000000         6.036259750215451E-005
   11.5876250000000         6.266279978142548E-005
   11.7006750000000         6.531024986949666E-005
   11.8137250000000         6.825884917262556E-005
   11.9267750000000         7.145638627871622E-005
   12.0398250000000         7.481121063460836E-005
   12.1528750000000         7.823470516264091E-005
   12.2659250000000         8.161176218036662E-005
   12.3789750000000         8.484213591228511E-005
   12.4920250000000         8.782049419028933E-005
   12.6050750000000         9.045748486300676E-005
   12.7181250000000         9.268571275753397E-005
   12.8311750000000         9.446374515578196E-005
   12.9442250000000         9.577887702202017E-005
   13.0572750000000         9.665231796580479E-005
   13.1703250000000         9.713922798756235E-005
   13.2833750000000         9.732815484775956E-005
   13.3964250000000         9.733759746897977E-005
   13.5094750000000         9.731164134036058E-005
   13.6225250000000         9.741225587113963E-005
   13.7355750000000         9.781378453840541E-005
   13.8486250000000         9.869154379063137E-005
   13.9616750000000         1.002171855665497E-004
   14.0747250000000         1.025449133226861E-004
   14.1877750000000         1.058074437644146E-004
   14.3008250000000         1.101048927838791E-004
   14.4138750000000         1.154992429658156E-004
   14.5269250000000         1.220093435358946E-004
   14.6399750000000         1.296098353316441E-004
   14.7530250000000         1.382333400375078E-004
   14.8660750000000         1.477663016043888E-004
   14.9791250000000         1.580513237153767E-004
   15.0921750000000         1.689168871416338E-004
   15.2052250000000         1.801285772477638E-004
   15.3182750000000         1.914773168320172E-004
   15.4313250000000         2.027015643908795E-004
   15.5443750000000         2.135868482704496E-004
   15.6574250000000         2.238840248832176E-004
   15.7704750000000         2.334116678555710E-004
   15.8835250000000         2.419743558531964E-004
   15.9965750000000         2.494459457229808E-004
   16.1096250000000         2.557217118571988E-004
   16.2226750000000         2.607466342724598E-004
   16.3357250000000         2.645119107255100E-004
   16.4487750000000         2.670513525604580E-004
   16.5618250000000         2.684376407956226E-004
   16.6748750000000         2.687803114191471E-004
   16.7879250000000         2.682182375950267E-004
   16.9009750000000         2.669101608171544E-004
   17.0140250000000         2.650240931807788E-004
   17.1270750000000         2.627323462503096E-004
   17.2401250000000         2.602020094656621E-004
   17.3531750000000         2.575844378884892E-004
   17.4662250000000         2.550161530312118E-004
   17.5792750000000         2.525944580043137E-004
   17.6923250000000         2.504064915136720E-004
   17.8053750000000         2.484820306259282E-004
   17.9184250000000         2.468464828372697E-004
   18.0314750000000         2.454592544355562E-004
   18.1445250000000         2.442940000707172E-004
   18.2575750000000         2.432529839790743E-004
   18.3706250000000         2.422684205052051E-004
   18.4836750000000         2.412171255584353E-004
   18.5967250000000         2.400145319897920E-004
   18.7097750000000         2.385364446785982E-004
   18.8228250000000         2.367133465676604E-004
   18.9358750000000         2.344470722493395E-004
   19.0489250000000         2.317079624945764E-004
   19.1619750000000         2.284434652201602E-004
   19.2750250000000         2.246779128511443E-004
   19.3880750000000         2.204165980765970E-004
   19.5011250000000         2.157418063932447E-004
   19.6141750000000         2.107154184835813E-004
   19.7272250000000         2.054697310961016E-004
   19.8402750000000         2.001101891868336E-004
   19.9533250000000         1.948016504792968E-004
   20.0663750000000         1.896731152409515E-004
   20.1794250000000         1.848988695821115E-004
   20.2924750000000         1.806079602932198E-004
   20.4055250000000         1.769599440263817E-004
   20.5185750000000         1.740651490767431E-004
   20.6316250000000         1.720420462169896E-004
   20.7446750000000         1.709718104282256E-004
   20.8577250000000         1.709158904252329E-004
   20.9707750000000         1.719116709103770E-004
   21.0838250000000         1.739685513728484E-004
   21.1968750000000         1.770722209838696E-004
   21.3099250000000         1.811849330620139E-004
   21.4229750000000         1.862475661254746E-004
   21.5360250000000         1.921825967367910E-004
   21.6490750000000         1.988979185457000E-004
   21.7621250000000         2.062894996621970E-004
   21.8751750000000         2.142478622894870E-004
   21.9882250000000         2.226568861140076E-004
   22.1012750000000         2.313991825305363E-004
   22.2143250000000         2.403588054492084E-004
   22.3273750000000         2.494232485628235E-004
   22.4404250000000         2.584850621907180E-004
   22.5534750000000         2.674437609323137E-004
   22.6665250000000         2.762062824256530E-004
   22.7795750000000         2.846883928998536E-004
   22.8926250000000         2.928146197842343E-004
   23.0056750000000         3.005188238176630E-004
   23.1187250000000         3.077437697424310E-004
   23.2317750000000         3.144416030460861E-004
   23.3448250000000         3.205742107089944E-004
   23.4578750000000         3.261123003395667E-004
   23.5709250000000         3.310363931094419E-004
   23.6839750000000         3.353364645684308E-004
   23.7970250000000         3.390119628247373E-004
   23.9100750000000         3.420722731177389E-004
   24.0231250000000         3.445363917356941E-004
   24.1361750000000         3.464325474396640E-004
   24.2492250000000         3.477985241782919E-004
   24.3622750000000         3.486800967581271E-004
   24.4753250000000         3.491316488351637E-004
   24.5883750000000         3.492141467520347E-004
   24.7014250000000         3.489952531575864E-004
   24.8144750000000         3.485467129320716E-004
   24.9275250000000         3.479440006931540E-004
   25.0405750000000         3.472643694905789E-004
   25.1536250000000         3.465850619942781E-004
   25.2666750000000         3.459819514236844E-004
   25.3797250000000         3.455286389465042E-004
   25.4927750000000         3.452950346431965E-004
   25.6058250000000         3.453473446264278E-004
   25.7188750000000         3.457455095326477E-004
   25.8319250000000         3.465449959476891E-004
   25.9449750000000         3.477956963078038E-004
   26.0580250000000         3.495424706866064E-004
   26.1710750000000         3.518258510984557E-004
   26.2841250000000         3.546825386695978E-004
   26.3971750000000         3.581460987815637E-004
   26.5102250000000         3.622482841337602E-004
   26.6232750000000         3.670187593235942E-004
   26.7363250000000         3.724851164719088E-004
   26.8493750000000         3.786707729238862E-004
   26.9624250000000         3.856127531540882E-004
   27.0754750000000         3.933175186910743E-004
   27.1885250000000         4.018209097193819E-004
   27.3015750000000         4.111156130206710E-004
   27.4146250000000         4.212258177070944E-004
   27.5276750000000         4.321382822804578E-004
   27.6407250000000         4.438420141968917E-004
   27.7537750000000         4.563076724092596E-004
   27.8668250000000         4.694917377918488E-004
   27.9798750000000         4.833339347450880E-004
   28.0929250000000         4.977564544854957E-004
   28.2059750000000         5.126634972645002E-004
   28.3190250000000         5.279417056064535E-004
   28.4320750000000         5.434615152047141E-004
   28.5451250000000         5.590793552112871E-004
   28.6581750000000         5.746398881057611E-004
   28.7712250000000         5.899801335784640E-004
   28.8842750000000         6.049336333976851E-004
   28.9973250000000         6.193349869494633E-004
   29.1103750000000         6.330261657474164E-004
   29.2234250000000         6.458530078463875E-004
   29.3364750000000         6.576932323677001E-004
   29.4495250000000         6.684220802188223E-004
   29.5625750000000         6.779557731169294E-004
   29.6756250000000         6.862324964773962E-004
   29.7886750000000         6.932206660449838E-004
   29.9017250000000         6.989133515002983E-004
   30.0147750000000         7.033385047699731E-004
   30.1278250000000         7.065515524032811E-004
   30.2408750000000         7.086325155750843E-004
   30.3539250000000         7.096876832265201E-004
   30.4669750000000         7.098408415876433E-004
   30.5800250000000         7.092279635090901E-004
   30.6930750000000         7.079940886682458E-004
   30.8061250000000         7.062886989485152E-004
   30.9191750000000         7.042579283311569E-004
   31.0322250000000         7.020427350839759E-004
   31.1452750000000         6.997721165272399E-004
   31.2583250000000         6.975610073695635E-004
   31.3713750000000         6.955058974391436E-004
   31.4844250000000         6.936847743571896E-004
   31.5974750000000         6.921550869297095E-004
   31.7105250000000         6.909547613884152E-004
   31.8235750000000         6.901026388450805E-004
   31.9366250000000         6.896013884533761E-004
   32.0496750000000         6.894391332695425E-004
   32.1627250000000         6.895937595444646E-004
   32.2757750000000         6.900355893173240E-004
   32.3888250000000         6.907310945965852E-004
   32.5018750000000         6.916468028465835E-004
   32.6149250000000         6.927515510703767E-004
   32.7279750000000         6.940199044440299E-004
   32.8410250000000         6.954337099161830E-004
   32.9540750000000         6.969826386997557E-004
   33.0671250000000         6.986664487320116E-004
   33.1801750000000         7.004920033361800E-004
   33.2932250000000         7.024745385931968E-004
   33.4062750000000         7.046358774419031E-004
   33.5193250000000         7.070003505657600E-004
   33.6323750000000         7.095933910980956E-004
   33.7454250000000         7.124399243608283E-004
   33.8584750000000         7.155597053726821E-004
   33.9715250000000         7.189660342627865E-004
   34.0845750000000         7.226633751421095E-004
   34.1976250000000         7.266453491410231E-004
   34.3106750000000         7.308939884959300E-004
   34.4237250000000         7.353800222930406E-004
   34.5367750000000         7.400620780840689E-004
   34.6498250000000         7.448886676918729E-004
   34.7628750000000         7.497994841025221E-004
   34.8759250000000         7.547278740532835E-004
   34.9889750000000         7.596037878619527E-004
   35.1020250000000         7.643567544196068E-004
   35.2150750000000         7.689191141827507E-004
   35.3281250000000         7.732294344732682E-004
   35.4411750000000         7.772352321461990E-004
   35.5542250000000         7.808965766754359E-004
   35.6672750000000         7.841873492476741E-004
   35.7803250000000         7.871004325300064E-004
   35.8933750000000         7.896359063071470E-004
   36.0064250000000         7.918252619691158E-004
   36.1194750000000         7.937028086993878E-004
   36.2325250000000         7.953336839514503E-004
   36.3455750000000         7.967784881290578E-004
   36.4586250000000         7.981298896735378E-004
   36.5716750000000         7.994650546108156E-004
   36.6847250000000         8.008921600693270E-004
   36.7977750000000         8.024918216812028E-004
   36.9108250000000         8.043720458852206E-004
   37.0238750000000         8.066042524570228E-004
   37.1369250000000         8.092752979082931E-004
   37.2499750000000         8.124479668670551E-004
   37.3630250000000         8.161701293929403E-004
   37.4760750000000         8.204733271790589E-004
   37.5891250000000         8.253706468199736E-004
   37.7021750000000         8.308558811655026E-004
   37.8152250000000         8.369041307165275E-004
   37.9282750000000         8.434722701355978E-004
   38.0413250000000         8.505004710316167E-004
   38.1543750000000         8.579153150274674E-004
   38.2674250000000         8.656313448617523E-004
   38.3804750000000         8.735551127861448E-004
   38.4935250000000         8.815877873256473E-004
   38.6065750000000         8.896330600254141E-004
   38.7196250000000         8.975916108050832E-004
   38.8326750000000         9.053768588133786E-004
   38.9457250000000         9.129113146912432E-004
   39.0587750000000         9.201260701293448E-004
   39.1718250000000         9.269752646991051E-004
   39.2848750000000         9.334282544904342E-004
   39.3979250000000         9.394740132683126E-004
   39.5109750000000         9.451225582321021E-004
   39.6240250000000         9.504042478300681E-004
   39.7370750000000         9.553685641997509E-004
   39.8501250000000         9.600829623903159E-004
   39.9631750000000         9.646299708654039E-004
   40.0762250000000         9.691041486955259E-004
   40.1892750000000         9.736087974338397E-004
   40.3023250000000         9.782511435659760E-004
   40.4153750000000         9.831387259125772E-004
   40.5284250000000         9.883749002812987E-004
   40.6414750000000         9.940539561641172E-004
   40.7545250000000         1.000255900737969E-003
   40.8675750000000         1.007052039227918E-003
   40.9806250000000         1.014483607963555E-003
   41.0936750000000         1.022583658904431E-003
   41.2067250000000         1.031342427370473E-003
   41.3197750000000         1.040754712356754E-003
   41.4328250000000         1.050767967010848E-003
   41.5458750000000         1.061322371220458E-003
   41.6589250000000         1.072335388835225E-003
   41.7719750000000         1.083709692684412E-003
   41.8850250000000         1.095336510263374E-003
   41.9980750000000         1.107100517220183E-003
   42.1111250000000         1.118884589910668E-003
   42.2241750000000         1.130571870032106E-003
   42.3372250000000         1.142057853785978E-003
   42.4502750000000         1.153242978764272E-003
   42.5633250000000         1.164050575627088E-003
   42.6763750000000         1.174416927703763E-003
   42.7894250000000         1.184301914933837E-003
   42.9024750000000         1.193685973898991E-003
   43.0155250000000         1.202571310614098E-003
   43.1285750000000         1.210982207157948E-003
   43.2416250000000         1.218956257830099E-003
   43.3546750000000         1.226550914129451E-003
   43.4677250000000         1.233834247587220E-003
   43.5807750000000         1.240880927079383E-003
   43.6938250000000         1.247768020058148E-003
   43.8068750000000         1.254569683078560E-003
   43.9199250000000         1.261352957222630E-003
   44.0329750000000         1.268173269648891E-003
   44.1460250000000         1.275070873459149E-003
   44.2590750000000         1.282068276643811E-003
   44.3721250000000         1.289168595018782E-003
   44.4851750000000         1.296354739350318E-003
   44.5982250000000         1.303590246820340E-003
   44.7112750000000         1.310820498609422E-003
   44.8243250000000         1.317977302975017E-003
   44.9373750000000         1.324981274291724E-003
   45.0504250000000         1.331746615131325E-003
   45.1634750000000         1.338186273232730E-003
   45.2765250000000         1.344217105527549E-003
   45.3895750000000         1.349764959539508E-003
   45.5026250000000         1.354769902797104E-003
   45.6156750000000         1.359189970871824E-003
   45.7287250000000         1.363004513950577E-003
   45.8417750000000         1.366216774689499E-003
   45.9548250000000         1.368854850314122E-003
   46.0678750000000         1.370971049834538E-003
   46.1809250000000         1.372640827367535E-003
   46.2939750000000         1.373959558260311E-003
   46.4070250000000         1.375038884007800E-003
   46.5200750000000         1.376001703078370E-003
   46.6331250000000         1.376976835223114E-003
   46.7461750000000         1.378092628096727E-003
   46.8592250000000         1.379471551418876E-003
   46.9722750000000         1.381223754111643E-003
   47.0853250000000         1.383442542942927E-003
   47.1983750000000         1.386199134319729E-003
   47.3114250000000         1.389539631797629E-003
   47.4244750000000         1.393483038681630E-003
   47.5375250000000         1.398020007036419E-003
   47.6505750000000         1.403115097351595E-003
   47.7636250000000         1.408704586005281E-003
   47.8766750000000         1.414704523776071E-003
   47.9897250000000         1.421012622600433E-003
   48.1027750000000         1.427514951292780E-003
   48.2158250000000         1.434090753477909E-003
   48.3288750000000         1.440619490999403E-003
   48.4419250000000         1.446987083542611E-003
   48.5549750000000         1.453091839630042E-003
   48.6680250000000         1.458849373180198E-003
   48.7810750000000         1.464198477925688E-003
   48.8941250000000         1.469105948692080E-003
   49.0071750000000         1.473554235926003E-003
   49.1202250000000         1.477573545187151E-003
   49.2332750000000         1.481202272063305E-003
   49.3463250000000         1.484517948859915E-003
   49.4593750000000         1.487613784414759E-003
   49.5724250000000         1.490602063713651E-003
   49.6854750000000         1.493606347245493E-003
   49.7985250000000         1.496756780541547E-003
   49.9115750000000         1.500182091605200E-003
   50.0246250000000         1.504004563199213E-003
   50.1376750000000         1.508333723106705E-003
   50.2507250000000         1.513260390645319E-003
   50.3637750000000         1.518850019912924E-003
   50.4768250000000         1.525153430395626E-003
   50.5898750000000         1.532171502282517E-003
   50.7029250000000         1.539896368791080E-003
   50.8159750000000         1.548281511195545E-003
   50.9290250000000         1.557255284550067E-003
   51.0420750000000         1.566722107414131E-003
   51.1551250000000         1.576567100577554E-003
   51.2681750000000         1.586660834784692E-003
   51.3812250000000         1.596865732393691E-003
   51.4942750000000         1.607041377053099E-003
   51.6073250000000         1.617050782498817E-003
   51.7203750000000         1.626766588606760E-003
   51.8334250000000         1.636076802591627E-003
   51.9464750000000         1.644887692189896E-003
   52.0595250000000         1.653130349808994E-003
   52.1725750000000         1.660761857542837E-003
   52.2856250000000         1.667766296766850E-003
   52.3986750000000         1.674155435666188E-003
   52.5117250000000         1.679968782513804E-003
   52.6247750000000         1.685268632875343E-003
   52.7378250000000         1.690137261542743E-003
   52.8508750000000         1.694677043885249E-003
   52.9639250000000         1.699001583919753E-003
   53.0769750000000         1.703231576754355E-003
   53.1900250000000         1.707489353446872E-003
   53.3030750000000         1.711893361892847E-003
   53.4161250000000         1.716553473235907E-003
   53.5291750000000         1.721563998268456E-003
   53.6422250000000         1.727007343965829E-003
   53.7552750000000         1.732941706738169E-003
   53.8683250000000         1.739402706406847E-003
   53.9813750000000         1.746404479680008E-003
   54.0944250000000         1.753936850076115E-003
   54.2074750000000         1.761967123700431E-003
   54.3205250000000         1.770444122913275E-003
   54.4335750000000         1.779297281024598E-003
   54.5466250000000         1.788444941179416E-003
   54.6596750000000         1.797795941967828E-003
   54.7727250000000         1.807255510700983E-003
   54.8857750000000         1.816727797381395E-003
   54.9988250000000         1.826122991242324E-003
   55.1118750000000         1.835359526571343E-003
   55.2249250000000         1.844368824842831E-003
   55.3379750000000         1.853097660874104E-003
   55.4510250000000         1.861511388020944E-003
   55.5640750000000         1.869593792100092E-003
   55.6771250000000         1.877348811453787E-003
   55.7901750000000         1.884798600439012E-003
   55.9032250000000         1.891982989919776E-003
   56.0162750000000         1.898956256439328E-003
   56.1293250000000         1.905784088937996E-003
   56.2423750000000         1.912540287185468E-003
   56.3554250000000         1.919301898798418E-003
   56.4684750000000         1.926144933268497E-003
   56.5815250000000         1.933140406069423E-003
   56.6945750000000         1.940349601806891E-003
   56.8076250000000         1.947821100337115E-003
   56.9206750000000         1.955587178915604E-003
   57.0337250000000         1.963661737571450E-003
   57.1467750000000         1.972039488454215E-003
   57.2598250000000         1.980693247827345E-003
   57.3728750000000         1.989582543072938E-003
   57.4859250000000         1.998644014080930E-003
   57.5989750000000         2.007801538356648E-003
   57.7120250000000         2.016967177494831E-003
   57.8250750000000         2.026046735348075E-003
   57.9381250000000         2.034939740692068E-003
   58.0511750000000         2.043563526479094E-003
   58.1642250000000         2.051809182288608E-003
   58.2772750000000         2.059621798445857E-003
   58.3903250000000         2.066921657907047E-003
   58.5033750000000         2.073680806806854E-003
   58.6164250000000         2.079866109658556E-003
   58.7294750000000         2.085489182730415E-003
   58.8425250000000         2.090566397889439E-003
   58.9555750000000         2.095151116745778E-003
   59.0686250000000         2.099307765621763E-003
   59.1816750000000         2.103117846767615E-003
   59.2947250000000         2.106686272008126E-003
   59.4077750000000         2.110118871710718E-003
   59.5208250000000         2.113526009883742E-003
   59.6338750000000         2.117019680437926E-003
   59.7469250000000         2.120705419106811E-003
   59.8599750000000         2.124677140225540E-003
   59.9730250000000         2.129013908662322E-003
   60.0860750000000         2.133775556505945E-003
   60.1991250000000         2.139000062356085E-003
   60.3121750000000         2.144702614793465E-003
   60.4252250000000         2.150872017394951E-003
   60.5382750000000         2.157483416566375E-003
   60.6513250000000         2.164481681624389E-003
   60.7643750000000         2.171795723699617E-003
   60.8774250000000         2.179342431078308E-003
   60.9904750000000         2.187029507611073E-003
   61.1035250000000         2.194760448514558E-003
   61.2165750000000         2.202439395852093E-003
   61.3296250000000         2.209977458486394E-003
   61.4426750000000         2.217294726419741E-003
   61.5557250000000         2.224328844236186E-003
   61.6687750000000         2.231035028063461E-003
   61.7818250000000         2.237391663516635E-003
   61.8948750000000         2.243397808921535E-003
   62.0079250000000         2.249075323960870E-003
   62.1209750000000         2.254466696344336E-003
   62.2340250000000         2.259641190862907E-003
   62.3470750000000         2.264658741683661E-003
   62.4601250000000         2.269632620624922E-003
   62.5731750000000         2.274640659401764E-003
   62.6862250000000         2.279805828917058E-003
   62.7992750000000         2.285208298610824E-003
   62.9123250000000         2.290959265422265E-003
   63.0253750000000         2.297126117079982E-003
   63.1384250000000         2.303791694252975E-003
   63.2514750000000         2.310994266047284E-003
   63.3645250000000         2.318777336187048E-003
   63.4775750000000         2.327142869449592E-003
   63.5906250000000         2.336087893480398E-003
   63.7036750000000         2.345585048052168E-003
   63.8167250000000         2.355589235848943E-003
   63.9297750000000         2.366041095671857E-003
   64.0428250000000         2.376870071833658E-003
   64.1558750000000         2.387997572087115E-003
   64.2689250000000         2.399340665384585E-003
   64.3819750000000         2.410815722602704E-003
   64.4950250000000         2.422341618829825E-003
   64.6080750000000         2.433843014273491E-003
   64.7211250000000         2.445252090538135E-003
   64.8341750000000         2.456510613493997E-003
   64.9472250000000         2.467570595545900E-003
   65.0602750000000         2.478395179160371E-003
   65.1733250000000         2.488957585890213E-003
   65.2863750000000         2.499240713970425E-003
   65.3994250000000         2.509235468023948E-003
   65.5124750000000         2.518939663924520E-003