 -0.847875000000000        -7.575765360547300E-018
 -0.734825000000000        -7.575181388719628E-018
 -0.621775000000000        -7.462355052363670E-018
 -0.508725000000000        -6.588809616738485E-018
 -0.395675000000000        -2.164771088828509E-018
 -0.282625000000000         1.563399789421958E-017
 -0.169575000000000         7.559104420807644E-017
 -5.652500000000005E-002    2.483253018218247E-016
  5.652499999999994E-002    6.796551499517962E-016
  0.169575000000000         1.623891900697422E-015
  0.282625000000000         3.454529030400405E-015
  0.395675000000000         6.625445227510900E-015
  0.508725000000000         1.156151154236348E-014
  0.621775000000000         1.846926917208321E-014
  0.734825000000000         2.707158662676025E-014
  0.847875000000000         3.627313125955291E-014
  0.960925000000000         4.376708056672178E-014
   1.07397500000000         4.558919610978521E-014
   1.18702500000000         3.563204688433667E-014
   1.30007500000000         5.123729223272740E-015
   1.41312500000000        -5.791654181859173E-014
   1.52617500000000        -1.692334952691089E-013
   1.63922500000000        -3.488962614697084E-013
   1.75227500000000        -6.218496614802261E-013
   1.86532500000000        -1.018432066061425E-012
   1.97837500000000        -1.574865547571414E-012
   2.09142500000000        -2.333687301318765E-012
   2.20447500000000        -3.344120944142417E-012
   2.31752500000000        -4.662376946244706E-012
   2.43057500000000        -6.351851009899330E-012
   2.54362500000000        -8.483243407481017E-012
   2.65667500000000        -1.113454773849707E-011
   2.76972500000000        -1.439094832009684E-011
   2.88277500000000        -1.834458402857738E-011
   2.99582500000000        -2.309420062208189E-011
   3.10887500000000        -2.874468671068674E-011
   3.22192500000000        -3.540650457756663E-011
   3.33497500000000        -4.319498000769801E-011
   3.44802500000000        -5.222956197385288E-011
   3.56107500000000        -6.263294280383272E-011
   3.67412500000000        -7.453018097355520E-011
   3.78717500000000        -8.804772120146793E-011
   3.90022500000000        -1.033124685412445E-010
   4.01327500000000        -1.204508062454418E-010
   4.12632500000000        -1.395876983642764E-010
   4.23937500000000        -1.608458560736142E-010
   4.35242500000000        -1.843449528235655E-010
   4.46547500000000        -2.102009935696329E-010
   4.57852500000000        -2.385257725851570E-010
   4.69157500000000        -2.694265326136579E-010
   4.80462500000000        -3.030057564538785E-010
   4.91767500000000        -3.393611194799674E-010
   5.03072500000000        -3.785856252786125E-010
   5.14377500000000        -4.207678972793378E-010
   5.25682500000000        -4.659926251238322E-010
   5.36987500000000        -5.143411441828086E-010
   5.48292500000000        -5.658920890878658E-010
   5.59597500000000        -6.207221400381952E-010
   5.70902500000000        -6.789067923980180E-010
   5.82207500000000        -7.405211089732960E-010
   5.93512500000000        -8.056404415144660E-010
   6.04817500000000        -8.743410187459725E-010
   6.16122500000000        -9.467004187666601E-010
   6.27427500000000        -1.022797839967512E-009
   6.38732500000000        -1.102714177901998E-009
   6.50037500000000        -1.186531872057590E-009
   6.61342500000000        -1.274334479522899E-009
   6.72647500000000        -1.366205990173905E-009
   6.83952500000000        -1.462229907971525E-009
   6.95257500000000        -1.562488089340125E-009
   7.06562500000000        -1.667059386970355E-009
   7.17867500000000        -1.776018139104584E-009
   7.29172500000000        -1.889432543477016E-009
   7.40477500000000        -2.007363015548143E-009
   7.51782500000000        -2.129860527398048E-009
   7.63087500000000        -2.256965116685181E-009
   7.74392500000000        -2.388704502375472E-009
   7.85697500000000        -2.525092955106483E-009
   7.97002500000000        -2.666130512367818E-009
   8.08307500000000        -2.811802460331880E-009
   8.19612500000000        -2.962079272001086E-009
   8.30917500000000        -3.116916949896056E-009
   8.42222500000000        -3.276257749957439E-009
   8.53527500000000        -3.440031340214648E-009
   8.64832500000000        -3.608156301722810E-009
   8.76137500000000        -3.780541979377731E-009
   8.87442500000000        -3.957090522541916E-009
   8.98747500000000        -4.137699177528851E-009
   9.10052500000000        -4.322262606207207E-009
   9.21357500000000        -4.510675169819298E-009
   9.32662500000000        -4.702833123713236E-009
   9.43967500000000        -4.898636582920897E-009
   9.55272500000000        -5.097991147337907E-009
   9.66577500000000        -5.300809165125177E-009
   9.77882500000000        -5.507010567645436E-009
   9.89187500000000        -5.716523188119801E-009
   10.0049250000000        -5.929282589781003E-009
   10.1179750000000        -6.145231396590178E-009
   10.2310250000000        -6.364318174605073E-009
   10.3440750000000        -6.586495914611183E-009
   10.4571250000000        -6.811720197665774E-009
   10.5701750000000        -7.039947133657158E-009
   10.6832250000000        -7.271131201860965E-009
   10.7962750000000        -7.505223105147972E-009
   10.9093250000000        -7.742167774243819E-009
   11.0223750000000        -7.981902607922020E-009
   11.1354250000000        -8.224356122397521E-009
   11.2484750000000        -8.469447018133854E-009
   11.3615250000000        -8.717083830149999E-009
   11.4745750000000        -8.967165112074049E-009
   11.5876250000000        -9.219580263861794E-009
   11.7006750000000        -9.474210881600086E-009
   11.8137250000000        -9.730932689852585E-009
   11.9267750000000        -9.989617907207059E-009
   12.0398250000000        -1.025013797362957E-008
   12.1528750000000        -1.051236652437916E-008
   12.2659250000000        -1.077618242478360E-008
   12.3789750000000        -1.104147277885106E-008
   12.4920250000000        -1.130813573550993E-008
   12.6050750000000        -1.157608290022125E-008
   12.7181250000000        -1.184524129432866E-008
   12.8311750000000        -1.211555472538099E-008
   12.9442250000000        -1.238698447763044E-008
   13.0572750000000        -1.265950925534917E-008
   13.1703250000000        -1.293312440479591E-008
   13.2833750000000        -1.320784038924183E-008
   13.3964250000000        -1.348368060503758E-008
   13.5094750000000        -1.376067861047109E-008
   13.6225250000000        -1.403887485940952E-008
   13.7355750000000        -1.431831313851311E-008
   13.8486250000000        -1.459903683352718E-008
   13.9616750000000        -1.488108516681654E-008
   14.0747250000000        -1.516448962687498E-008
   14.1877750000000        -1.544927071287289E-008
   14.3008250000000        -1.573543520726328E-008
   14.4138750000000        -1.602297395993462E-008
   14.5269250000000        -1.631186046281732E-008
   14.6399750000000        -1.660205014191240E-008
   14.7530250000000        -1.689348041913437E-008
   14.8660750000000        -1.718607161966657E-008
   14.9791250000000        -1.747972858016428E-008
   15.0921750000000        -1.777434291635810E-008
   15.2052250000000        -1.806979585002722E-008
   15.3182750000000        -1.836596145729417E-008
   15.4313250000000        -1.866271017855720E-008
   15.5443750000000        -1.895991246808409E-008
   15.6574250000000        -1.925744239112545E-008
   15.7704750000000        -1.955518105163297E-008
   15.8835250000000        -1.985301967962886E-008
   15.9965750000000        -2.015086228720334E-008
   16.1096250000000        -2.044862781096367E-008
   16.2226750000000        -2.074625166818179E-008
   16.3357250000000        -2.104368670145830E-008
   16.4487750000000        -2.134090351290267E-008
   16.5618250000000        -2.163789024592820E-008
   16.6748750000000        -2.193465180280706E-008
   16.7879250000000        -2.223120865700895E-008
   16.9009750000000        -2.252759534484334E-008
   17.0140250000000        -2.282385868453016E-008
   17.1270750000000        -2.312005590199097E-008
   17.2401250000000        -2.341625272681569E-008
   17.3531750000000        -2.371252157077269E-008
   17.4662250000000        -2.400893987195271E-008
   17.5792750000000        -2.430558868756173E-008
   17.6923250000000        -2.460255152997437E-008
   17.8053750000000        -2.489991350472565E-008
   17.9184250000000        -2.519776076294471E-008
   18.0314750000000        -2.549618018647333E-008
   18.1445250000000        -2.579525931204626E-008
   18.2575750000000        -2.609508642682859E-008
   18.3706250000000        -2.639575074057855E-008
   18.4836750000000        -2.669734261571428E-008
   18.5967250000000        -2.699995371503192E-008
   18.7097750000000        -2.730367707402307E-008
   18.8228250000000        -2.760860696969238E-008
   18.9358750000000        -2.791483861036882E-008
   19.0489250000000        -2.822246756301394E-008
   19.1619750000000        -2.853158893610002E-008
   19.2750250000000        -2.884229637794214E-008
   19.3880750000000        -2.915468079025705E-008
   19.5011250000000        -2.946882898006092E-008
   19.6141750000000        -2.978482213648716E-008
   19.7272250000000        -3.010273431728733E-008
   19.8402750000000        -3.042263095468813E-008
   19.9533250000000        -3.074456749827035E-008
   20.0663750000000        -3.106858821096952E-008
   20.1794250000000        -3.139472520763207E-008
   20.2924750000000        -3.172299778516742E-008
   20.4055250000000        -3.205341203780811E-008
   20.5185750000000        -3.238596083667581E-008
   20.6316250000000        -3.272062408201502E-008
   20.7446750000000        -3.305736929965110E-008
   20.8577250000000        -3.339615247178707E-008
   20.9707750000000        -3.373691908919951E-008
   21.0838250000000        -3.407960537346818E-008
   21.1968750000000        -3.442413958572875E-008
   21.3099250000000        -3.477044338538741E-008
   21.4229750000000        -3.511843313710305E-008
   21.5360250000000        -3.546802116022636E-008
   21.6490750000000        -3.581911684068101E-008
   21.7621250000000        -3.617162763102642E-008
   21.8751750000000        -3.652545978983236E-008
   21.9882250000000        -3.688051904653924E-008
   22.1012750000000        -3.723671105537283E-008
   22.2143250000000        -3.759394173179729E-008
   22.3273750000000        -3.795211745483372E-008
   22.4404250000000        -3.831114524638719E-008
   22.5534750000000        -3.867093291323477E-008
   22.6665250000000        -3.903138922509315E-008
   22.7795750000000        -3.939242414717008E-008
   22.8926250000000        -3.975394919639700E-008
   23.0056750000000        -4.011587791168894E-008
   23.1187250000000        -4.047812645488969E-008
   23.2317750000000        -4.084061432718400E-008
   23.3448250000000        -4.120326525386680E-008
   23.4578750000000        -4.156600809354709E-008
   23.5709250000000        -4.192877780539595E-008
   23.6839750000000        -4.229151642288615E-008
   23.7970250000000        -4.265417392966425E-008
   23.9100750000000        -4.301670904856959E-008
   24.0231250000000        -4.337908980655950E-008
   24.1361750000000        -4.374129387565537E-008
   24.2492250000000        -4.410330863814777E-008
   24.3622750000000        -4.446513096906479E-008
   24.4753250000000        -4.482676664019938E-008
   24.5883750000000        -4.518822945057620E-008
   24.7014250000000        -4.554954003923751E-008
   24.8144750000000        -4.591072443273856E-008
   24.9275250000000        -4.627181236577242E-008
   25.0405750000000        -4.663283544220977E-008
   25.1536250000000        -4.699382521350963E-008
   25.2666750000000        -4.735481122259288E-008
   25.3797250000000        -4.771581911302090E-008
   25.4927750000000        -4.807686884628724E-008
   25.6058250000000        -4.843797308673719E-008
   25.7188750000000        -4.879913586160269E-008
   25.8319250000000        -4.916035144467280E-008
   25.9449750000000        -4.952160353699225E-008
   26.0580250000000        -4.988286472908396E-008
   26.1710750000000        -5.024409622845911E-008
   26.2841250000000        -5.060524783584426E-008
   26.3971750000000        -5.096625814845350E-008
   26.5102250000000        -5.132705485601458E-008
   26.6232750000000        -5.168755518222785E-008
   26.7363250000000        -5.204766635972452E-008
   26.8493750000000        -5.240728606835128E-008
   26.9624250000000        -5.276630284390319E-008
   27.0754750000000        -5.312459639554910E-008
   27.1885250000000        -5.348203781330311E-008
   27.3015750000000        -5.383848961758269E-008
   27.4146250000000        -5.419380583778151E-008
   27.5276750000000        -5.454783188942959E-008
   27.6407250000000        -5.490040452514166E-008
   27.7537750000000        -5.525135181308545E-008
   27.8668250000000        -5.560049321355301E-008
   27.9798750000000        -5.594763988795994E-008
   28.0929250000000        -5.629259522805640E-008
   28.2059750000000        -5.663515574657272E-008
   28.3190250000000        -5.697511235682272E-008
   28.4320750000000        -5.731225208345651E-008
   28.5451250000000        -5.764636019067473E-008
   28.6581750000000        -5.797722279843626E-008
   28.7712250000000        -5.830462987479899E-008
   28.8842750000000        -5.862837858040771E-008
   28.9973250000000        -5.894827687116087E-008
   29.1103750000000        -5.926414725843803E-008
   29.2234250000000        -5.957583053990160E-008
   29.3364750000000        -5.988318941245256E-008
   29.4495250000000        -6.018611176768649E-008
   29.5625750000000        -6.048451346588661E-008
   29.6756250000000        -6.077834047714886E-008
   29.7886750000000        -6.106757022138439E-008
   29.9017250000000        -6.135221194610300E-008
   30.0147750000000        -6.163230603999401E-008
   30.1278250000000        -6.190792221775205E-008
   30.2408750000000        -6.217915649003915E-008
   30.3539250000000        -6.244612703140932E-008
   30.4669750000000        -6.270896885874254E-008
   30.5800250000000        -6.296782753711895E-008
   30.6930750000000        -6.322285198993074E-008
   30.8061250000000        -6.347418665124786E-008
   30.9191750000000        -6.372196316211982E-008
   31.0322250000000        -6.396629194543363E-008
   31.1452750000000        -6.420725389391845E-008
   31.2583250000000        -6.444489253988707E-008
   31.3713750000000        -6.467920700884602E-008
   31.4844250000000        -6.491014612569836E-008
   31.5974750000000        -6.513760395396742E-008
   31.7105250000000        -6.536141706128577E-008
   31.8235750000000        -6.558136380997832E-008
   31.9366250000000        -6.579716577924378E-008
   32.0496750000000        -6.600849156560589E-008
   32.1627250000000        -6.621496292769740E-008
   32.2757750000000        -6.641616331163445E-008
   32.3888250000000        -6.661164861285456E-008
   32.5018750000000        -6.680095998921174E-008
   32.6149250000000        -6.698363842056784E-008
   32.7279750000000        -6.715924060639499E-008
   32.8410250000000        -6.732735571162125E-008
   32.9540750000000        -6.748762243814307E-008
   33.0671250000000        -6.763974568698387E-008
   33.1801750000000        -6.778351225129150E-008
   33.2932250000000        -6.791880472598534E-008
   33.4062750000000        -6.804561290977104E-008
   33.5193250000000        -6.816404206602481E-008
   33.6323750000000        -6.827431725438997E-008
   33.7454250000000        -6.837678331885679E-008
   33.8584750000000        -6.847189988529665E-008
   33.9715250000000        -6.856023115910712E-008
   34.0845750000000        -6.864243031909021E-008
   34.1976250000000        -6.871921855499576E-008
   34.3106750000000        -6.879135899890385E-008
   34.4237250000000        -6.885962603291459E-008
   34.5367750000000        -6.892477075934417E-008
   34.6498250000000        -6.898748351497331E-008
   34.7628750000000        -6.904835470492195E-008
   34.8759250000000        -6.910783532372688E-008
   34.9889750000000        -6.916619875190170E-008
   35.1020250000000        -6.922350553253207E-008
   35.2150750000000        -6.927957289818953E-008
   35.3281250000000        -6.933395086501311E-008
   35.4411750000000        -6.938590657041918E-008
   35.5542250000000        -6.943441850782912E-008
   35.6672750000000        -6.947818196617159E-008
   35.7803250000000        -6.951562675036762E-008
   35.8933750000000        -6.954494785174899E-008
   36.0064250000000        -6.956414929919489E-008
   36.1194750000000        -6.957110090402050E-008
   36.2325250000000        -6.956360704490467E-008
   36.3455750000000        -6.953948604961886E-008
   36.4586250000000        -6.949665816208675E-008
   36.5716750000000        -6.943323946247899E-008
   36.6847250000000        -6.934763866695361E-008
   36.7977750000000        -6.923865312780625E-008
   36.9108250000000        -6.910556018777895E-008
   37.0238750000000        -6.894819959058774E-008
   37.1369250000000        -6.876704273649870E-008
   37.2499750000000        -6.856324453814458E-008
   37.3630250000000        -6.833867389195450E-008
   37.4760750000000        -6.809591929884611E-008
   37.5891250000000        -6.783826665937513E-008
   37.7021750000000        -6.756964721612422E-008
   37.8152250000000        -6.729455447442395E-008
   37.9282750000000        -6.701793014639660E-008
   38.0413250000000        -6.674502032138963E-008
   38.1543750000000        -6.648120446654032E-008
   38.2674250000000        -6.623180105255266E-008
   38.3804750000000        -6.600185508361888E-008
   38.4935250000000        -6.579591391837487E-008
   38.6065750000000        -6.561779893345681E-008
   38.7196250000000        -6.547038146459197E-008
   38.8326750000000        -6.535537209776387E-008
   38.9457250000000        -6.527313281671807E-008
   39.0587750000000        -6.522252144115808E-008
   39.1718250000000        -6.520077755768469E-008
   39.2848750000000        -6.520345827680761E-008
   39.3979250000000        -6.522443110975909E-008
   39.5109750000000        -6.525592970818269E-008
   39.6240250000000        -6.528867632495788E-008
   39.7370750000000        -6.531207265259608E-008
   39.8501250000000        -6.531445817144903E-008
   39.9631750000000        -6.528343263230355E-008
   40.0762250000000        -6.520623635748252E-008
   40.1892750000000        -6.507017944792304E-008
   40.3023250000000        -6.486310823525207E-008
   40.4153750000000        -6.457389498279257E-008
   40.5284250000000        -6.419293461583837E-008
   40.6414750000000        -6.371263067211502E-008
   40.7545250000000        -6.312785160986940E-008
   40.8675750000000        -6.243633797668401E-008
   40.9806250000000        -6.163904119838989E-008
   41.0936750000000        -6.074037573043175E-008
   41.2067250000000        -5.974836791001581E-008
   41.3197750000000        -5.867468741736571E-008
   41.4328250000000        -5.753455033601919E-008
   41.5458750000000        -5.634648671606099E-008
   41.6589250000000        -5.513196988639192E-008
   41.7719750000000        -5.391490965497090E-008
   41.8850250000000        -5.272101661968915E-008
   41.9980750000000        -5.157705009046794E-008
   42.1111250000000        -5.050996729142791E-008
   42.2241750000000        -4.954599642332147E-008
   42.3372250000000        -4.870966061177320E-008
   42.4502750000000        -4.802278356108321E-008
   42.5633250000000        -4.750351066697929E-008
   42.6763750000000        -4.716538118650976E-008
   42.7894250000000        -4.701648795416424E-008
   42.9024750000000        -4.705876050086887E-008
   43.0155250000000        -4.728740567427767E-008
   43.1285750000000        -4.769053666756945E-008
   43.2416250000000        -4.824901686715124E-008
   43.3546750000000        -4.893653921354420E-008
   43.4677250000000        -4.971995494509822E-008
   43.5807750000000        -5.055985783353245E-008
   43.6938250000000        -5.141142148018921E-008
   43.8068750000000        -5.222547845145267E-008
   43.9199250000000        -5.294982086191917E-008
   44.0329750000000        -5.353069313783411E-008
   44.1460250000000        -5.391443928188070E-008
   44.2590750000000        -5.404925933403161E-008
   44.3721250000000        -5.388702327424578E-008
   44.4851750000000        -5.338508547581135E-008
   44.5982250000000        -5.250803952550893E-008
   44.7112750000000        -5.122935165618390E-008
   44.8243250000000        -4.953281153159952E-008
   44.9373750000000        -4.741374186402908E-008
   45.0504250000000        -4.487991295077709E-008
   45.1634750000000        -4.195211525718199E-008
   45.2765250000000        -3.866435171315208E-008
   45.3895750000000        -3.506362215596117E-008
   45.5026250000000        -3.120928400003251E-008
   45.6156750000000        -2.717198653297374E-008
   45.7287250000000        -2.303218976582584E-008
   45.8417750000000        -1.887829293465876E-008
   45.9548250000000        -1.480441140388335E-008
   46.0678750000000        -1.090785393460591E-008
   46.1809250000000        -7.286364308543199E-009
   46.2939750000000        -4.035201537242701E-009
   46.4070250000000        -1.244141368807638E-009
   46.5200750000000         1.005512244116675E-009
   46.6331250000000         2.643813692961033E-009
   46.7461750000000         3.614867710067088E-009
   46.8592250000000         3.879236766371628E-009
   46.9722750000000         3.415979225583772E-009
   47.0853250000000         2.224241860941501E-009
   47.1983750000000         3.243415376775523E-010
   47.3114250000000        -2.241715975399917E-009
   47.4244750000000        -5.410316445672316E-009
   47.5375250000000        -9.096936382437147E-009
   47.6505750000000        -1.319746244203398E-008
   47.7636250000000        -1.759011398625139E-008
   47.8766750000000        -2.213793330874680E-008
   47.9897250000000        -2.669179052603657E-008
   48.1027750000000        -3.109383373338633E-008
   48.2158250000000        -3.518130066828828E-008
   48.3288750000000        -3.879059604151034E-008
   48.4419250000000        -4.176152955890208E-008
   48.5549750000000        -4.394160346658370E-008
   48.6680250000000        -4.519023577684963E-008
   48.7810750000000        -4.538280603785558E-008
   48.8941250000000        -4.441441473371332E-008
   49.0071750000000        -4.220325469373631E-008
   49.1202250000000        -3.869350364213858E-008
   49.2332750000000        -3.385765987964651E-008
   49.3463250000000        -2.769825870763911E-008
   49.4593750000000        -2.024892397024715E-008
   49.5724250000000        -1.157472718050570E-008
   49.6854750000000        -1.771845006201622E-009
   49.7985250000000         9.033476014926631E-009
   49.9115750000000         2.068662160070076E-008
   50.0246250000000         3.300693717736098E-008
   50.1376750000000         4.579062563530947E-008
   50.2507250000000         5.881414943517818E-008
   50.3637750000000         7.183806296105912E-008
   50.4768250000000         8.461119593081739E-008
   50.5898750000000         9.687510662092299E-008
   50.7029250000000         1.083687246516572E-007
   50.8159750000000         1.188331066961271E-007
   50.9290250000000         1.280162345387173E-007
   51.0420750000000         1.356777926595801E-007
   51.1551250000000         1.415938715758700E-007
   51.2681750000000         1.455615525875095E-007
   51.3812250000000         1.474033387349375E-007
   51.4942750000000         1.469714049964674E-007
   51.6073250000000         1.441516470073574E-007
   51.7203750000000         1.388675113891258E-007
   51.8334250000000         1.310835917672112E-007
   51.9464750000000         1.208089717532831E-007
   52.0595250000000         1.081002898456653E-007
   52.1725750000000         9.306449127534080E-008
   52.2856250000000         7.586121819438121E-008
   52.3986750000000         5.670477286298819E-008
   52.5117250000000         3.586556992986129E-008
   52.6247750000000         1.367097319443342E-008
   52.7378250000000        -9.494607796243869E-009
   52.8508750000000        -3.319050542207490E-008
   52.9639250000000        -5.692162630305669E-008
   53.0769750000000        -8.014150065076934E-008
   53.1900250000000        -1.022567268658982E-007
   53.3030750000000        -1.226329877030975E-007
   53.4161250000000        -1.406028031104773E-007
   53.5291750000000        -1.554751629856496E-007
   53.6422250000000        -1.665471496653034E-007
   53.7552750000000        -1.731176141667698E-007
   53.8683250000000        -1.745029118798708E-007
   53.9813750000000        -1.700546329170078E-007
   54.0944250000000        -1.591791804793434E-007
   54.2074750000000        -1.413589589824746E-007
   54.3205250000000        -1.161748341603644E-007
   54.4335750000000        -8.332942321704930E-008
   54.5466250000000        -4.267066697968294E-008
   54.6596750000000         5.784967559453093E-009
   54.7727250000000         6.183040312686693E-008
   54.8857750000000         1.250478209996680E-007
   54.9988250000000         1.947913868878969E-007
   55.1118750000000         2.701737865472084E-007
   55.2249250000000         3.500575462180051E-007
   55.3379750000000         4.330521051966978E-007
   55.4510250000000         5.175175654486668E-007
   55.5640750000000         6.015759634318039E-007
   55.6771250000000         6.831307894622412E-007
   55.7901750000000         7.598953191948175E-007
   55.9032250000000         8.294301203124277E-007
   56.0162750000000         8.891898566000455E-007
   56.1293250000000         9.365792348712104E-007
   56.2423750000000         9.690176322806347E-007
   56.3554250000000         9.840116089015033E-007
   56.4684750000000         9.792341611165346E-007
   56.5815250000000         9.526092151894628E-007
   56.6945750000000         9.023995079530273E-007
   56.8076250000000         8.272956652097573E-007
   56.9206750000000         7.265039808581947E-007
   57.0337250000000         5.998301344540209E-007
   57.1467750000000         4.477558753524726E-007
   57.2598250000000         2.715055607097544E-007
   57.3728750000000         7.309937494828649E-008
   57.4859250000000        -1.446099093708074E-007
   57.5989750000000        -3.779196356510959E-007
   57.7120250000000        -6.222821969820351E-007
   57.8250750000000        -8.723346100962559E-007
   57.9381250000000        -1.121954672902341E-006
   58.0511750000000        -1.364345070888755E-006
   58.1642250000000        -1.592146115354279E-006
   58.2772750000000        -1.797577019730474E-006
   58.3903250000000        -1.972604763719070E-006
   58.5033750000000        -2.109138676566895E-006
   58.6164250000000        -2.199247912335987E-006
   58.7294750000000        -2.235398017054441E-006
   58.8425250000000        -2.210701827947171E-006
   58.9555750000000        -2.119179029137073E-006
   59.0686250000000        -1.956017848665117E-006
   59.1816750000000        -1.717831650364732E-006
   59.2947250000000        -1.402902584448423E-006
   59.4077750000000        -1.011404043267470E-006
   59.5208250000000        -5.455934525818749E-007
   59.6338750000000        -9.966939754862729E-009
   59.7469250000000         5.886323210797299E-007
   59.8599750000000         1.240959764720018E-006
   59.9730250000000         1.935375974887422E-006
   60.0860750000000         2.657919923603846E-006
   60.1991250000000         3.392453389276670E-006
   60.3121750000000         4.120879444069227E-006
   60.4252250000000         4.823436083418966E-006
   60.5382750000000         5.479064056111071E-006
   60.6513250000000         6.065845782762932E-006
   60.7643750000000         6.561509973458032E-006
   60.8774250000000         6.943994227227778E-006
   60.9904750000000         7.192055579714098E-006
   61.1035250000000         7.285916727975514E-006
   61.2165750000000         7.207933573246527E-006
   61.3296250000000         6.943267855352686E-006
   61.4426750000000         6.480547078308298E-006
   61.5557250000000         5.812492713077262E-006
   61.6687750000000         4.936496875548052E-006
   61.7818250000000         3.855127371106887E-006
   61.8948750000000         2.576541220048049E-006
   62.0079250000000         1.114787566274999E-006
   62.1209750000000        -5.100177517157449E-007
   62.2340250000000        -2.271661715500834E-006
   62.3470750000000        -4.137960913344810E-006
   62.4601250000000        -6.071055660189300E-006
   62.5731750000000        -8.027877866745981E-006
   62.6862250000000        -9.960794967789035E-006
   62.7992750000000        -1.181842773098829E-005
   62.9123250000000        -1.354663499076247E-005
   63.0253750000000        -1.508965339377409E-005
   63.1384250000000        -1.639137522639702E-005
   63.2514750000000        -1.739674244996619E-005
   63.3645250000000        -1.805323033629501E-005
   63.4775750000000        -1.831238971514890E-005
   63.5906250000000        -1.813141296038554E-005
   63.7036750000000        -1.747468558968021E-005
   63.8167250000000        -1.631528286545198E-005
   63.9297750000000        -1.463636917959622E-005
   64.0428250000000        -1.243245738426826E-005
   64.1558750000000        -9.710485677692498E-006
   64.2689250000000        -6.490671226502181E-006
   64.3819750000000        -2.807102436926476E-006
   64.4950250000000         1.291964320215762E-006
   64.6080750000000         5.744132698327455E-006
   64.7211250000000         1.047324214254613E-005
   64.8341750000000         1.539010741288888E-005
   64.9472250000000         2.039362989025570E-005
   65.0602750000000         2.537228003199701E-005
   65.1733250000000         3.020594115297459E-005
   65.2863750000000         3.476809518946094E-005
   65.3994250000000         3.892832148089394E-005
   65.5124750000000         4.255507011598005E-005