 -0.847875000000000         1.183002635591359E-023
 -0.734825000000000         8.528294310686772E-024
 -0.621775000000000        -9.899557541890861E-023
 -0.508725000000000        -9.219289434581761E-022
 -0.395675000000000        -5.178141495135631E-021
 -0.282625000000000        -2.275089946486320E-020
 -0.169575000000000        -8.373631167349482E-020
 -5.652500000000005E-002   -2.659078817908424E-019
  5.652499999999994E-002   -7.420452892755618E-019
  0.169575000000000        -1.847133364181398E-018
  0.282625000000000        -4.157820760883609E-018
  0.395675000000000        -8.572212696439461E-018
  0.508725000000000        -1.637993145187694E-017
  0.621775000000000        -2.931894892773568E-017
  0.734825000000000        -4.961667711136099E-017
  0.847875000000000        -8.001639930258455E-017
  0.960925000000000        -1.237829204103097E-016
   1.07397500000000        -1.846846439844210E-016
   1.18702500000000        -2.669422039000053E-016
   1.30007500000000        -3.751402508729924E-016
   1.41312500000000        -5.140998234251126E-016
   1.52617500000000        -6.887034793579545E-016
   1.63922500000000        -9.036845950249395E-016
   1.75227500000000        -1.163375261240580E-015
   1.86532500000000        -1.471432479696373E-015
   1.97837500000000        -1.830542635867320E-015
   2.09142500000000        -2.242122380712549E-015
   2.20447500000000        -2.706030424768050E-015
   2.31752500000000        -3.220318417087553E-015
   2.43057500000000        -3.781016968569681E-015
   2.54362500000000        -4.381976377940736E-015
   2.65667500000000        -5.014806873459122E-015
   2.76972500000000        -5.668888214737335E-015
   2.88277500000000        -6.331489204506722E-015
   2.99582500000000        -6.987972874177954E-015
   3.10887500000000        -7.622110075999729E-015
   3.22192500000000        -8.216497121721848E-015
   3.33497500000000        -8.753036691526125E-015
   3.44802500000000        -9.213493705719055E-015
   3.56107500000000        -9.580101920144982E-015
   3.67412500000000        -9.836185599833625E-015
   3.78717500000000        -9.966788828148428E-015
   3.90022500000000        -9.959244713931611E-015
   4.01327500000000        -9.803723514156171E-015
   4.12632500000000        -9.493663146485337E-015
   4.23937500000000        -9.026113507799015E-015
   4.35242500000000        -8.401951537143634E-015
   4.46547500000000        -7.625980528270914E-015
   4.57852500000000        -6.706855526736889E-015
   4.69157500000000        -5.656907114159326E-015
   4.80462500000000        -4.491831359891784E-015
   4.91767500000000        -3.230267988775620E-015
   5.03072500000000        -1.893302640609963E-015
   5.14377500000000        -5.039373946760595E-016
   5.25682500000000         9.134685990965457E-016
   5.36987500000000         2.333732903709878E-015
   5.48292500000000         3.731333556784768E-015
   5.59597500000000         5.080793736661284E-015
   5.70902500000000         6.356951690010937E-015
   5.82207500000000         7.535093525695262E-015
   5.93512500000000         8.590948712249643E-015
   6.04817500000000         9.500510164248685E-015
   6.16122500000000         1.023975556638546E-014
   6.27427500000000         1.078422964108709E-014
   6.38732500000000         1.110856679230471E-014
   6.50037500000000         1.118598076137295E-014
   6.61342500000000         1.098776423857822E-014
   6.72647500000000         1.048287512439957E-014
   6.83952500000000         9.637686601938961E-015
   6.95257500000000         8.415903253336356E-015
   7.06562500000000         6.778742618663133E-015
   7.17867500000000         4.685393600529242E-015
   7.29172500000000         2.093807684101186E-015
   7.40477500000000        -1.038186374745667E-015
   7.51782500000000        -4.751441170909790E-015
   7.63087500000000        -9.083779783972535E-015
   7.74392500000000        -1.406802718495368E-014
   7.85697500000000        -1.972989221708628E-014
   7.97002500000000        -2.608577900779033E-014
   8.08307500000000        -3.314058955707994E-014
   8.19612500000000        -4.088573325610966E-014
   8.30917500000000        -4.929734847616976E-014
   8.42222500000000        -5.833494678698192E-014
   8.53527500000000        -6.794053057403768E-014
   8.64832500000000        -7.803830161430448E-014
   8.76137500000000        -8.853502775198807E-014
   8.87442500000000        -9.932111349668426E-014
   8.98747500000000        -1.102723734595479E-013
   9.10052500000000        -1.212525312219346E-013
   9.21357500000000        -1.321163040221095E-013
   9.32662500000000        -1.427130585719347E-013
   9.43967500000000        -1.528908747001869E-013
   9.55272500000000        -1.625008663235809E-013
   9.66577500000000        -1.714016001308190E-013
   9.77882500000000        -1.794633977967084E-013
   9.89187500000000        -1.865723723150124E-013
   10.0049250000000        -1.926339843378722E-013
   10.1179750000000        -1.975759541275785E-013
   10.2310250000000        -2.013504180012723E-013
   10.3440750000000        -2.039351783058046E-013
   10.4571250000000        -2.053340265553577E-013
   10.5701750000000        -2.055760830882185E-013
   10.6832250000000        -2.047142422830322E-013
   10.7962750000000        -2.028227101391996E-013
   10.9093250000000        -1.999938450226551E-013
   11.0223750000000        -1.963344436390554E-013
   11.1354250000000        -1.919615990301397E-013
   11.2484750000000        -1.869984419542229E-013
   11.3615250000000        -1.815699567996637E-013
   11.4745750000000        -1.757990138922529E-013
   11.5876250000000        -1.698029501279255E-013
   11.7006750000000        -1.636907718002711E-013
   11.8137250000000        -1.575611723304757E-013
   11.9267750000000        -1.515013826772801E-013
   12.0398250000000        -1.455869935578985E-013
   12.1528750000000        -1.398826020332668E-013
   12.2659250000000        -1.344433050702205E-013
   12.3789750000000        -1.293168326924720E-013
   12.4920250000000        -1.245461908088345E-013
   12.6050750000000        -1.201725742004791E-013
   12.7181250000000        -1.162383166928118E-013
   12.8311750000000        -1.127896386677684E-013
   12.9442250000000        -1.098789525322778E-013
   13.0572750000000        -1.075664951072319E-013
   13.1703250000000        -1.059211548522886E-013
   13.2833750000000        -1.050203116085998E-013
   13.3964250000000        -1.049486301786990E-013
   13.5094750000000        -1.057958322970888E-013
   13.6225250000000        -1.076534503568398E-013
   13.7355750000000        -1.106107536678360E-013
   13.8486250000000        -1.147499881741881E-013
   13.9616750000000        -1.201411973623944E-013
   14.0747250000000        -1.268368757581476E-013
   14.1877750000000        -1.348668015854927E-013
   14.3008250000000        -1.442332909001238E-013
   14.4138750000000        -1.549072645780489E-013
   14.5269250000000        -1.668252836600021E-013
   14.6399750000000        -1.798878716701578E-013
   14.7530250000000        -1.939592187585954E-013
   14.8660750000000        -2.088684063732151E-013
   14.9791250000000        -2.244121608431258E-013
   15.0921750000000        -2.403590420638425E-013
   15.2052250000000        -2.564549390447983E-013
   15.3182750000000        -2.724296736119179E-013
   15.4313250000000        -2.880043993124805E-013
   15.5443750000000        -3.028995143915821E-013
   15.6574250000000        -3.168427420122604E-013
   15.7704750000000        -3.295769393498351E-013
   15.8835250000000        -3.408673779369959E-013
   15.9965750000000        -3.505081357665700E-013
   16.1096250000000        -3.583273018220868E-013
   16.2226750000000        -3.641908200464244E-013
   16.3357250000000        -3.680047941116376E-013
   16.4487750000000        -3.697162253394177E-013
   16.5618250000000        -3.693121644695375E-013
   16.6748750000000        -3.668174187853771E-013
   16.7879250000000        -3.622909719747555E-013
   16.9009750000000        -3.558213566750876E-013
   17.0140250000000        -3.475212310983477E-013
   17.1270750000000        -3.375215200121987E-013
   17.2401250000000        -3.259654457177645E-013
   17.3531750000000        -3.130027249969136E-013
   17.4662250000000        -2.987842784988319E-013
   17.5792750000000        -2.834576470983203E-013
   17.6923250000000        -2.671633453650784E-013
   17.8053750000000        -2.500322908690889E-013
   17.9184250000000        -2.321843222833228E-013
   18.0314750000000        -2.137278268336043E-013
   18.1445250000000        -1.947603737736770E-013
   18.2575750000000        -1.753702207581934E-013
   18.3706250000000        -1.556384682501738E-013
   18.4836750000000        -1.356416487396827E-013
   18.5967250000000        -1.154544949591519E-013
   18.7097750000000        -9.515260280556557E-014
   18.8228250000000        -7.481480789374466E-014
   18.9358750000000        -5.452496025546991E-014
   19.0489250000000        -3.437303375675900E-014
   19.1619750000000        -1.445538293887186E-014
   19.2750250000000         5.125893798730401E-015
   19.3880750000000         2.426445335026079E-014
   19.5011250000000         4.285204574236329E-014
   19.6141750000000         6.078151363216043E-014
   19.7272250000000         7.795033882975739E-014
   19.8402750000000         9.426445290767212E-014
   19.9533250000000         1.096421768109099E-013
   20.0663750000000         1.240179637727245E-013
   20.1794250000000         1.373457845984336E-013
   20.2924750000000         1.496019160635952E-013
   20.4055250000000         1.607869594181735E-013
   20.5185750000000         1.709270103033638E-013
   20.6316250000000         1.800738816741790E-013
   20.7446750000000         1.883043352033398E-013
   20.8577250000000         1.957184423490203E-013
   20.9707750000000         2.024370757195827E-013
   21.0838250000000         2.085987563601706E-013
   21.1968750000000         2.143559409976402E-013
   21.3099250000000         2.198710313147763E-013
   21.4229750000000         2.253122412957620E-013
   21.5360250000000         2.308495642872671E-013
   21.6490750000000         2.366510012759158E-013
   21.7621250000000         2.428792235991758E-013
   21.8751750000000         2.496887820707965E-013
   21.9882250000000         2.572239509902320E-013
   22.1012750000000         2.656172487079903E-013
   22.2143250000000         2.749886192517063E-013
   22.3273750000000         2.854452315799889E-013
   22.4404250000000         2.970818140416910E-013
   22.5534750000000         3.099814143186210E-013
   22.6665250000000         3.242164577604885E-013
   22.7795750000000         3.398499715680902E-013
   22.8926250000000         3.569368296604575E-013
   23.0056750000000         3.755249367248551E-013
   23.1187250000000         3.956562117384049E-013
   23.2317750000000         4.173673211746891E-013
   23.3448250000000         4.406901308736920E-013
   23.4578750000000         4.656518344992695E-013
   23.5709250000000         4.922748336519247E-013
   23.6839750000000         5.205763640084558E-013
   23.7970250000000         5.505679461234677E-013
   23.9100750000000         5.822547844038618E-013
   24.0231250000000         6.156351301096967E-013
   24.1361750000000         6.506997402963684E-013
   24.2492250000000         6.874314410927324E-013
   24.3622750000000         7.258049016751581E-013
   24.4753250000000         7.657866185236103E-013
   24.5883750000000         8.073350610346237E-013
   24.7014250000000         8.504010190204256E-013
   24.8144750000000         8.949280267804044E-013
   24.9275250000000         9.408528516994216E-013
   25.0405750000000         9.881059232455160E-013
   25.1536250000000         1.036611602142940E-012
   25.2666750000000         1.086288254635923E-012
   25.3797250000000         1.137048047697801E-012
   25.4927750000000         1.188796438770117E-012
   25.6058250000000         1.241431364678234E-012
   25.7188750000000         1.294842154696567E-012
   25.8319250000000         1.348908272578827E-012
   25.9449750000000         1.403498015984425E-012
   26.0580250000000         1.458467298664814E-012
   26.1710750000000         1.513658768101515E-012
   26.2841250000000         1.568901409521125E-012
   26.3971750000000         1.624010931576906E-012
   26.5102250000000         1.678791009534147E-012
   26.6232750000000         1.733035659685730E-012
   26.7363250000000         1.786532830598572E-012
   26.8493750000000         1.839069261399437E-012
   26.9624250000000         1.890436622760593E-012
   27.0754750000000         1.940438810606403E-012
   27.1885250000000         1.988900224419530E-012
   27.3015750000000         2.035674694614999E-012
   27.4146250000000         2.080654810223968E-012
   27.5276750000000         2.123781084864986E-012
   27.6407250000000         2.165050542432631E-012
   27.7537750000000         2.204524165033496E-012
   27.8668250000000         2.242332681014549E-012
   27.9798750000000         2.278680192150166E-012
   28.0929250000000         2.313845148160417E-012
   28.2059750000000         2.348178298504020E-012
   28.3190250000000         2.382097381025233E-012
   28.4320750000000         2.416078379797050E-012
   28.5451250000000         2.450643407174997E-012
   28.6581750000000         2.486345409647649E-012
   28.7712250000000         2.523750054462408E-012
   28.8842750000000         2.563415398822540E-012
   28.9973250000000         2.605870026337204E-012
   29.1103750000000         2.651590533748913E-012
   29.2234250000000         2.700979378594910E-012
   29.3364750000000         2.754344112431366E-012
   29.4495250000000         2.811879143974231E-012
   29.5625750000000         2.873651100496524E-012
   29.6756250000000         2.939588858340315E-012
   29.7886750000000         3.009479056562287E-012
   29.9017250000000         3.082967921706508E-012
   30.0147750000000         3.159569861288170E-012
   30.1278250000000         3.238683065732850E-012
   30.2408750000000         3.319612108247773E-012
   30.3539250000000         3.401597096204863E-012
   30.4669750000000         3.483848693145612E-012
   30.5800250000000         3.565587938944038E-012
   30.6930750000000         3.646089520007878E-012
   30.8061250000000         3.724726786652839E-012
   30.9191750000000         3.801016646969510E-012
   31.0322250000000         3.874662260811992E-012
   31.1452750000000         3.945591291772768E-012
   31.2583250000000         4.013987617297914E-012
   31.3713750000000         4.080314255401261E-012
   31.4844250000000         4.145325619606091E-012
   31.5974750000000         4.210067368357555E-012
   31.7105250000000         4.275862568213821E-012
   31.8235750000000         4.344283260231371E-012
   31.9366250000000         4.417107135917954E-012
   32.0496750000000         4.496259611101180E-012
   32.1627250000000         4.583742161007752E-012
   32.2757750000000         4.681548595062737E-012
   32.3888250000000         4.791571506280249E-012
   32.5018750000000         4.915501818266654E-012
   32.6149250000000         5.054724963677625E-012
   32.7279750000000         5.210217681369618E-012
   32.8410250000000         5.382449853214767E-012
   32.9540750000000         5.571296039318194E-012
   33.0671250000000         5.775961452209827E-012
   33.1801750000000         5.994927018181344E-012
   33.2932250000000         6.225917877076511E-012
   33.4062750000000         6.465899220846949E-012
   33.5193250000000         6.711102568865687E-012
   33.6323750000000         6.957084857703408E-012
   33.7454250000000         7.198821458180272E-012
   33.8584750000000         7.430833185332656E-012
   33.9715250000000         7.647345916909992E-012
   34.0845750000000         7.842480031029620E-012
   34.1976250000000         8.010465482441480E-012
   34.3106750000000         8.145876872344027E-012
   34.4237250000000         8.243881505119760E-012
   34.5367750000000         8.300492240563263E-012
   34.6498250000000         8.312815969868447E-012
   34.7628750000000         8.279287747020048E-012
   34.8759250000000         8.199880223979620E-012
   34.9889750000000         8.076277922664374E-012
   35.1020250000000         7.912006215889705E-012
   35.2150750000000         7.712505602020938E-012
   35.3281250000000         7.485143001753050E-012
   35.4411750000000         7.239153377682659E-012
   35.5542250000000         6.985506937846874E-012
   35.6672750000000         6.736699532560091E-012
   35.7803250000000         6.506466381546439E-012
   35.8933750000000         6.309422205511074E-012
   36.0064250000000         6.160633754722954E-012
   36.1194750000000         6.075133746141454E-012
   36.2325250000000         6.067388194828725E-012
   36.3455750000000         6.150731821580241E-012
   36.4586250000000         6.336788727886688E-012
   36.5716750000000         6.634897558738878E-012
   36.6847250000000         7.051561831579234E-012
   36.7977750000000         7.589947072142109E-012
   36.9108250000000         8.249446493945255E-012
   37.0238750000000         9.025336516977252E-012
   37.1369250000000         9.908541882602436E-012
   37.2499750000000         1.088552809658646E-011
   37.3630250000000         1.193833588135330E-011
   37.4760750000000         1.304476867956042E-011
   37.5891250000000         1.417873979397771E-011
   37.7021750000000         1.531078097292811E-011
   37.8152250000000         1.640870885363371E-011
   37.9282750000000         1.743844009039842E-011
   38.0413250000000         1.836494035948671E-011
   38.1543750000000         1.915328685290551E-011
   38.2674250000000         1.976981862820599E-011
   38.3804750000000         2.018334439525538E-011
   38.4935250000000         2.036637324151489E-011
   38.6065750000000         2.029633056244062E-011
   38.7196250000000         1.995671921951073E-011
   38.8326750000000         1.933818488594772E-011
   38.9457250000000         1.843944467353876E-011
   39.0587750000000         1.726803946614090E-011
   39.1718250000000         1.584087329969402E-011
   39.2848750000000         1.418450695924421E-011
   39.3979250000000         1.233517830361005E-011
   39.5109750000000         1.033852817995129E-011
   39.6240250000000         8.249018131896759E-012
   39.7370750000000         6.129034258814528E-012
   39.8501250000000         4.047680349323976E-012
   39.9631750000000         2.079272617002392E-012
   40.0762250000000         3.015576623262101E-013
   40.1892750000000        -1.206315503223347E-012
   40.3023250000000        -2.366029608381397E-012
   40.4153750000000        -3.102491384353832E-012
   40.5284250000000        -3.346326382245148E-012
   40.6414750000000        -3.036414306934327E-012
   40.7545250000000        -2.122397574803000E-012
   40.8675750000000        -5.670918698088476E-013
   40.9806250000000         1.651274744419686E-012
   41.0936750000000         4.537068458908203E-012
   41.2067250000000         8.075575299139507E-012
   41.3197750000000         1.223171601792178E-011
   41.4328250000000         1.694921611352094E-011
   41.5458750000000         2.215029034666030E-011
   41.6589250000000         2.773589282546452E-011
   41.7719750000000         3.358657377977207E-011
   41.8850250000000         3.956397246216181E-011
   41.9980750000000         4.551296229988535E-011
   42.1111250000000         5.126444973816320E-011
   42.2241750000000         5.663881209527863E-011
   42.3372250000000         6.144994254842396E-011
   42.4502750000000         6.550985231023737E-011
   42.5633250000000         6.863376131048507E-011
   42.6763750000000         7.064558962248006E-011
   42.7894250000000         7.138374301289777E-011
   42.9024750000000         7.070706744502397E-011
   43.0155250000000         6.850083002274166E-011
   43.1285750000000         6.468256799682715E-011
   43.2416250000000         5.920763382743306E-011
   43.3546750000000         5.207425347295234E-011
   43.4677250000000         4.332790790862191E-011
   43.5807750000000         3.306484480160448E-011
   43.6938250000000         2.143452934035115E-011
   43.8068750000000         8.640850718452136E-012
   43.9199250000000        -5.058085483793713E-012
   44.0329750000000        -1.935172828609638E-011
   44.1460250000000        -3.388053760379922E-011
   44.2590750000000        -4.824121326053828E-011
   44.3721250000000        -6.199374257949355E-011
   44.4851750000000        -7.467026410991490E-011
   44.5982250000000        -8.578569087220153E-011
   44.7112750000000        -9.484997698284944E-011
   44.8243250000000        -1.013818482230103E-010
   44.9373750000000        -1.049237516785489E-010
   45.0504250000000        -1.050577134690919E-010
   45.1634750000000        -1.014217295835727E-010
   45.2765250000000        -9.372625466942098E-011
   45.3895750000000        -8.177030044897545E-011
   45.5026250000000        -6.545661145630040E-011
   45.6156750000000        -4.480535408254383E-011
   45.7287250000000        -1.996573755735999E-011
   45.8417750000000         8.775014618775693E-012
   45.9548250000000         4.098590548358065E-011
   46.0678750000000         7.609014097336608E-011
   46.1809250000000         1.133673039487441E-010
   46.2939750000000         1.519601049614983E-010
   46.4070250000000         1.908859838084300E-010
   46.5200750000000         2.290537106881247E-010
   46.6331250000000         2.652849918267542E-010
   46.7461750000000         2.983409250560813E-010
   46.8592250000000         3.269529797141008E-010
   46.9722750000000         3.498579968871931E-010
   47.0853250000000         3.658365260806424E-010
   47.1983750000000         3.737536384075910E-010
   47.3114250000000         3.726011912144919E-010
   47.4244750000000         3.615403710479998E-010
   47.5375250000000         3.399432178687700E-010
   47.6505750000000         3.074317399513818E-010
   47.7636250000000         2.639131720597397E-010
   47.8766750000000         2.096099145674049E-010
   47.9897250000000         1.450827226655858E-010
   48.1027750000000         7.124579580231945E-011
   48.2158250000000        -1.062745014132387E-011
   48.3288750000000        -9.890896163820600E-011
   48.4419250000000        -1.916317772372421E-010
   48.5549750000000        -2.865174281519423E-010
   48.6680250000000        -3.810152083028832E-010
   48.7810750000000        -4.723531571578308E-010
   48.8941250000000        -5.576002184716214E-010
   49.0071750000000        -6.337386428241858E-010
   49.1202250000000        -6.977453038649700E-010
   49.2332750000000        -7.466802099524961E-010
   49.3463250000000        -7.777801277901634E-010
   49.4593750000000        -7.885549061192382E-010
   49.5724250000000        -7.768838096412224E-010
   49.6854750000000        -7.411089577726831E-010
   49.7985250000000        -6.801228221200078E-010
   49.9115750000000        -5.934466800988158E-010
   50.0246250000000        -4.812969578171703E-010
   50.1376750000000        -3.446365289341736E-010
   50.2507250000000        -1.852082699471873E-010
   50.3637750000000        -5.548506202118943E-012
   50.4768250000000         1.910215873092749E-010
   50.5898750000000         4.004280467928416E-010
   50.7029250000000         6.179004604302671E-010
   50.8159750000000         8.380527431255564E-010
   50.9290250000000         1.054987785822101E-009
   51.0420750000000         1.262424675718607E-009
   51.1551250000000         1.453846429419262E-009
   51.2681750000000         1.622665439405107E-009
   51.3812250000000         1.762403127958202E-009
   51.4942750000000         1.866879655575899E-009
   51.6073250000000         1.930408965597245E-009
   51.7203750000000         1.947993984972787E-009
   51.8334250000000         1.915516462365442E-009
   51.9464750000000         1.829915725962643E-009
   52.0595250000000         1.689350598035685E-009
   52.1725750000000         1.493338821116015E-009
   52.2856250000000         1.242868636780753E-009
   52.3986750000000         9.404776129343140E-010
   52.5117250000000         5.902944349051877E-010
   52.6247750000000         1.980401499873937E-010
   52.7378250000000        -2.290137301847432E-010
   52.8508750000000        -6.821318287001870E-010
   52.9639250000000        -1.151246628997694E-009
   53.0769750000000        -1.625134546923952E-009
   53.1900250000000        -2.091634323630575E-009
   53.3030750000000        -2.537904460499522E-009
   53.4161250000000        -2.950715190075715E-009
   53.5291750000000        -3.316769311415844E-009
   53.6422250000000        -3.623045147603385E-009
   53.7552750000000        -3.857153941338048E-009
   53.8683250000000        -4.007703221028435E-009
   53.9813750000000        -4.064657072677043E-009
   54.0944250000000        -4.019683864939234E-009
   54.2074750000000        -3.866481813793464E-009
   54.3205250000000        -3.601072852682126E-009
   54.4335750000000        -3.222055600004522E-009
   54.5466250000000        -2.730808789073402E-009
   54.6596750000000        -2.131637340133283E-009
   54.7727250000000        -1.431854297393707E-009
   54.8857750000000        -6.417931078208122E-010
   54.9988250000000         2.252538414512133E-010
   55.1118750000000         1.153172913442235E-009
   55.2249250000000         2.123243905948258E-009
   55.3379750000000         3.114430691910556E-009
   55.4510250000000         4.103744926989465E-009
   55.5640750000000         5.066678082751598E-009
   55.6771250000000         5.977695251043443E-009
   55.7901750000000         6.810782434591577E-009
   55.9032250000000         7.540037432367336E-009
   56.0162750000000         8.140292984379925E-009
   56.1293250000000         8.587759595255586E-009
   56.2423750000000         8.860674441169095E-009
   56.3554250000000         8.939942007268056E-009
   56.4684750000000         8.809751625203455E-009
   56.5815250000000         8.458156898684904E-009
   56.6945750000000         7.877602130105568E-009
   56.8076250000000         7.065381297775559E-009
   56.9206750000000         6.024015880080718E-009
   57.0337250000000         4.761538873086956E-009
   57.1467750000000         3.291673689237048E-009
   57.2598250000000         1.633898239804401E-009
   57.3728750000000        -1.866136296323307E-010
   57.4859250000000        -2.139179089350357E-009
   57.5989750000000        -4.187925111981816E-009
   57.7120250000000        -6.292240095402821E-009
   57.8250750000000        -8.407356744074157E-009
   57.9381250000000        -1.048506196339152E-008
   58.0511750000000        -1.247452680425833E-008
   58.1642250000000        -1.432324676845576E-008
   58.2772750000000        -1.597808009219136E-008
   58.3903250000000        -1.738636900785686E-008
   58.5033750000000        -1.849712648669126E-008
   58.6164250000000        -1.926226863180176E-008
   58.7294750000000        -1.963787076657349E-008
   58.8425250000000        -1.958542339269547E-008
   58.9555750000000        -1.907306261972550E-008
   59.0686250000000        -1.807674843888196E-008
   59.1816750000000        -1.658136337117128E-008
   59.2947250000000        -1.458170360672258E-008
   59.4077750000000        -1.208333480885097E-008
   59.5208250000000        -9.103285320546732E-009
   59.6338750000000        -5.670550616968347E-009
   59.7469250000000        -1.826384524144777E-009
   59.8599750000000         2.375645006094442E-009
   59.9730250000000         6.869854896674618E-009
   60.0860750000000         1.157891656092225E-008
   60.1991250000000         1.641460787210369E-008
   60.3121750000000         2.127885453437370E-008
   60.4252250000000         2.606506265255544E-008
   60.5382750000000         3.065973853692405E-008
   60.6513250000000         3.494438557091518E-008
   60.7643750000000         3.879766139579609E-008
   60.8774250000000         4.209777182647538E-008
   60.9904750000000         4.472507092428635E-008
   61.1035250000000         4.656482965026258E-008
   61.2165750000000         4.751012865714971E-008
   61.3296250000000         4.746482421558927E-008
   61.4426750000000         4.634653018650339E-008
   61.5557250000000         4.408955353350075E-008
   61.6687750000000         4.064771630697851E-008
   61.7818250000000         3.599699351635423E-008
   61.8948750000000         3.013789402500238E-008
   62.0079250000000         2.309751073017399E-008
   62.1209750000000         1.493116698777187E-008
   62.2340250000000         5.723588647755226E-009
   62.3470750000000        -4.410464710005125E-009
   62.4601250000000        -1.532616963046785E-008
   62.5731750000000        -2.684926196975416E-008
   62.6862250000000        -3.877735567983766E-008
   62.7992750000000        -5.088198761766356E-008
   62.9123250000000        -6.291140520557623E-008
   63.0253750000000        -7.459409857582594E-008
   63.1384250000000        -8.564306226082538E-008
   63.2514750000000        -9.576075381587326E-008
   63.3645250000000        -1.046446983070814E-007
   63.4775750000000        -1.119936687383125E-007
   63.5906250000000        -1.175143536435795E-007
   63.7036750000000        -1.209284046886378E-007
   63.8167250000000        -1.219797396866853E-007
   63.9297750000000        -1.204419604355461E-007
   64.0428250000000        -1.161257307290050E-007
   64.1558750000000        -1.088859482780927E-007
   64.2689250000000        -9.862853557324700E-008
   64.3819750000000        -8.531666936454722E-008
   64.4950250000000        -6.897626682585238E-008
   64.6080750000000        -4.970054892743315E-008
   64.7211250000000        -2.765350832359392E-008
   64.8341750000000        -3.072120331179203E-009
   64.9472250000000         2.373284860147162E-008
   65.0602750000000         5.237756019875235E-008
   65.1733250000000         8.240745200335763E-008
   65.2863750000000         1.133012851494892E-007
   65.3994250000000         1.444769315726278E-007
   65.5124750000000         1.752989043000825E-007