 -0.847875000000000         1.981898188491736E-025
 -0.734825000000000         1.985447603325491E-025
 -0.621775000000000         1.997271744091241E-025
 -0.508725000000000         2.103687228405242E-025
 -0.395675000000000         2.891078143096779E-025
 -0.282625000000000         7.189727539960069E-025
 -0.169575000000000         2.611836850720008E-024
 -5.652500000000005E-002    9.671413422205667E-024
  5.652499999999994E-002    3.257856384700183E-023
  0.169575000000000         9.837405977296774E-023
  0.282625000000000         2.680196751151295E-022
  0.395675000000000         6.653773446490185E-022
  0.508725000000000         1.520244749377956E-021
  0.621775000000000         3.226980876326010E-021
  0.734825000000000         6.418481273168689E-021
  0.847875000000000         1.205467641959348E-020
  0.960925000000000         2.152296474076626E-020
   1.07397500000000         3.674857076731461E-020
   1.18702500000000         6.031107065916314E-020
   1.30007500000000         9.556417537432655E-020
   1.41312500000000         1.467546100478572E-019
   1.52617500000000         2.191360470895442E-019
   1.63922500000000         3.190754401211366E-019
   1.75227500000000         4.541473104452535E-019
   1.86532500000000         6.332099222934311E-019
   1.97837500000000         8.664641938309078E-019
   2.09142500000000         1.165488238325295E-018
   2.20447500000000         1.543247526120924E-018
   2.31752500000000         2.014078268002936E-018
   2.43057500000000         2.593642337982587E-018
   2.54362500000000         3.298854049217874E-018
   2.65667500000000         4.147775284760622E-018
   2.76972500000000         5.159492654664507E-018
   2.88277500000000         6.353959340100906E-018
   2.99582500000000         7.751825835999673E-018
   3.10887500000000         9.374247739793326E-018
   3.22192500000000         1.124268867075007E-017
   3.33497500000000         1.337870045770012E-017
   3.44802500000000         1.580372663097327E-017
   3.56107500000000         1.853888736089968E-017
   3.67412500000000         2.160479541421652E-017
   3.78717500000000         2.502137180522989E-017
   3.90022500000000         2.880770289801289E-017
   4.01327500000000         3.298190512311272E-017
   4.12632500000000         3.756103582375706E-017
   4.23937500000000         4.256103669809629E-017
   4.35242500000000         4.799670808730683E-017
   4.46547500000000         5.388172672616420E-017
   4.57852500000000         6.022869456583413E-017
   4.69157500000000         6.704923190040299E-017
   4.80462500000000         7.435409909908507E-017
   4.91767500000000         8.215333763643731E-017
   5.03072500000000         9.045644184208811E-017
   5.14377500000000         9.927254903238922E-017
   5.25682500000000         1.086106340964161E-016
   5.36987500000000         1.184797059887965E-016
   5.48292500000000         1.288889959385479E-016
   5.59597500000000         1.398481341234829E-016
   5.70902500000000         1.513673026927493E-016
   5.82207500000000         1.634573595630643E-016
   5.93512500000000         1.761299297057067E-016
   6.04817500000000         1.893974531086216E-016
   6.16122500000000         2.032731917927256E-016
   6.27427500000000         2.177711874846551E-016
   6.38732500000000         2.329061780290462E-016
   6.50037500000000         2.486934692006281E-016
   6.61342500000000         2.651487614190258E-016
   6.72647500000000         2.822879440692593E-016
   6.83952500000000         3.001268569132419E-016
   6.95257500000000         3.186810310871378E-016
   7.06562500000000         3.379654190353813E-016
   7.17867500000000         3.579941181664315E-016
   7.29172500000000         3.787801016827900E-016
   7.40477500000000         4.003349738155600E-016
   7.51782500000000         4.226687438321769E-016
   7.63087500000000         4.457896475420679E-016
   7.74392500000000         4.697040091374158E-016
   7.85697500000000         4.944161555322771E-016
   7.97002500000000         5.199283931808865E-016
   8.08307500000000         5.462410405180540E-016
   8.19612500000000         5.733525217747970E-016
   8.30917500000000         6.012595261014199E-016
   8.42222500000000         6.299572102663221E-016
   8.53527500000000         6.594394580380738E-016
   8.64832500000000         6.896991652404402E-016
   8.76137500000000         7.207285629744932E-016
   8.87442500000000         7.525195398341570E-016
   8.98747500000000         7.850639787200503E-016
   9.10052500000000         8.183540686356400E-016
   9.21357500000000         8.523825880912753E-016
   9.32662500000000         8.871431506976528E-016
   9.43967500000000         9.226303953701733E-016
   9.55272500000000         9.588401076102962E-016
   9.66577500000000         9.957692754020831E-016
   9.77882500000000         1.033416074040210E-015
   9.89187500000000         1.071779764683829E-015
   10.0049250000000         1.110860535932196E-015
   10.1179750000000         1.150659263601113E-015
   10.2310250000000         1.191177223167790E-015
   10.3440750000000         1.232415754737379E-015
   10.4571250000000         1.274375901370623E-015
   10.5701750000000         1.317058031007888E-015
   10.6832250000000         1.360461464487652E-015
   10.7962750000000         1.404584133524416E-015
   10.9093250000000         1.449422271197160E-015
   11.0223750000000         1.494970164729665E-015
   11.1354250000000         1.541219979874420E-015
   11.2484750000000         1.588161666267920E-015
   11.3615250000000         1.635782958436540E-015
   11.4745750000000         1.684069463818268E-015
   11.5876250000000         1.733004852491657E-015
   11.7006750000000         1.782571129365077E-015
   11.8137250000000         1.832748986643769E-015
   11.9267750000000         1.883518227898196E-015
   12.0398250000000         1.934858233355810E-015
   12.1528750000000         1.986748470801441E-015
   12.2659250000000         2.039168998650804E-015
   12.3789750000000         2.092100975408415E-015
   12.4920250000000         2.145527128003556E-015
   12.6050750000000         2.199432170623462E-015
   12.7181250000000         2.253803151502275E-015
   12.8311750000000         2.308629718356428E-015
   12.9442250000000         2.363904288008055E-015
   13.0572750000000         2.419622111639036E-015
   13.1703250000000         2.475781238186335E-015
   13.2833750000000         2.532382373581561E-015
   13.3964250000000         2.589428648273972E-015
   13.5094750000000         2.646925300846069E-015
   13.6225250000000         2.704879291190228E-015
   13.7355750000000         2.763298866908067E-015
   13.8486250000000         2.822193100866909E-015
   13.9616750000000         2.881571414692696E-015
   14.0747250000000         2.941443115569269E-015
   14.1877750000000         3.001816965862685E-015
   14.3008250000000         3.062700812613451E-015
   14.4138750000000         3.124101258473458E-015
   14.5269250000000         3.186023433346255E-015
   14.6399750000000         3.248470835708851E-015
   14.7530250000000         3.311445262555840E-015
   14.8660750000000         3.374946834635261E-015
   14.9791250000000         3.438974101089653E-015
   15.0921750000000         3.503524207152154E-015
   15.2052250000000         3.568593137896087E-015
   15.3182750000000         3.634175998155772E-015
   15.4313250000000         3.700267331065214E-015
   15.5443750000000         3.766861446839765E-015
   15.6574250000000         3.833952755754912E-015
   15.7704750000000         3.901536080931439E-015
   15.8835250000000         3.969606949674634E-015
   15.9965750000000         4.038161831115903E-015
   16.1096250000000         4.107198343490015E-015
   16.2226750000000         4.176715394790474E-015
   16.3357250000000         4.246713277992054E-015
   16.4487750000000         4.317193713716767E-015
   16.5618250000000         4.388159850136038E-015
   16.6748750000000         4.459616210192011E-015
   16.7879250000000         4.531568616604264E-015
   16.9009750000000         4.604024094747839E-015
   17.0140250000000         4.676990759932976E-015
   17.1270750000000         4.750477706184764E-015
   17.2401250000000         4.824494897720408E-015
   17.3531750000000         4.899053076349647E-015
   17.4662250000000         4.974163682971837E-015
   17.5792750000000         5.049838807168458E-015
   17.6923250000000         5.126091149431639E-015
   17.8053750000000         5.202934006741709E-015
   17.9184250000000         5.280381276980970E-015
   18.0314750000000         5.358447466898494E-015
   18.1445250000000         5.437147704073040E-015
   18.2575750000000         5.516497749846499E-015
   18.3706250000000         5.596513987209707E-015
   18.4836750000000         5.677213404086974E-015
   18.5967250000000         5.758613538021140E-015
   18.7097750000000         5.840732402187093E-015
   18.8228250000000         5.923588373835647E-015
   18.9358750000000         6.007200055288491E-015
   19.0489250000000         6.091586102273346E-015
   19.1619750000000         6.176765031331607E-015
   19.2750250000000         6.262755009583684E-015
   19.3880750000000         6.349573635013309E-015
   19.5011250000000         6.437237720943828E-015
   19.6141750000000         6.525763086274341E-015
   19.7272250000000         6.615164368211385E-015
   19.8402750000000         6.705454864111081E-015
   19.9533250000000         6.796646409209169E-015
   20.0663750000000         6.888749299854732E-015
   20.1794250000000         6.981772256859463E-015
   20.2924750000000         7.075722443644898E-015
   20.4055250000000         7.170605518737568E-015
   20.5185750000000         7.266425738507169E-015
   20.6316250000000         7.363186091212753E-015
   20.7446750000000         7.460888456452390E-015
   20.8577250000000         7.559533783256689E-015
   20.9707750000000         7.659122272329502E-015
   21.0838250000000         7.759653555855933E-015
   21.1968750000000         7.861126865677627E-015
   21.3099250000000         7.963541177882569E-015
   21.4229750000000         8.066895326988439E-015
   21.5360250000000         8.171188091703434E-015
   21.6490750000000         8.276418241926949E-015
   21.7621250000000         8.382584561106937E-015
   21.8751750000000         8.489685822960014E-015
   21.9882250000000         8.597720757051239E-015
   22.1012750000000         8.706687993428711E-015
   22.2143250000000         8.816585999978256E-015
   22.3273750000000         8.927413018505000E-015
   22.4404250000000         9.039167019839495E-015
   22.5534750000000         9.151845676505124E-015
   22.6665250000000         9.265446367678930E-015
   22.7795750000000         9.379966216445694E-015
   22.8926250000000         9.495402176224308E-015
   23.0056750000000         9.611751150687470E-015
   23.1187250000000         9.729010156899231E-015
   23.2317750000000         9.847176519966777E-015
   23.3448250000000         9.966248105248190E-015
   23.4578750000000         1.008622355620761E-014
   23.5709250000000         1.020710254623253E-014
   23.6839750000000         1.032888602200102E-014
   23.7970250000000         1.045157642638814E-014
   23.9100750000000         1.057517789278084E-014
   24.0231250000000         1.069969638768856E-014
   24.1361750000000         1.082513980542491E-014
   24.2492250000000         1.095151799516242E-014
   24.3622750000000         1.107884273068590E-014
   24.4753250000000         1.120712759854775E-014
   24.5883750000000         1.133638783101390E-014
   24.7014250000000         1.146664007246646E-014
   24.8144750000000         1.159790209895118E-014
   24.9275250000000         1.173019248936665E-014
   25.0405750000000         1.186353027215123E-014
   25.1536250000000         1.199793455305470E-014
   25.2666750000000         1.213342414658097E-014
   25.3797250000000         1.227001722014910E-014
   25.4927750000000         1.240773096347602E-014
   25.6058250000000         1.254658129548573E-014
   25.7188750000000         1.268658262525298E-014
   25.8319250000000         1.282774765992061E-014
   25.9449750000000         1.297008727251609E-014
   26.0580250000000         1.311361042521574E-014
   26.1710750000000         1.325832414526482E-014
   26.2841250000000         1.340423355129808E-014
   26.3971750000000         1.355134192326621E-014
   26.5102250000000         1.369965079221008E-014
   26.6232750000000         1.384916006013420E-014
   26.7363250000000         1.399986812842081E-014
   26.8493750000000         1.415177202032631E-014
   26.9624250000000         1.430486750075432E-014
   27.0754750000000         1.445914917451529E-014
   27.1885250000000         1.461461057020726E-014
   27.3015750000000         1.477124419007340E-014
   27.4146250000000         1.492904155848501E-014
   27.5276750000000         1.508799323140790E-014
   27.6407250000000         1.524808880648835E-014
   27.7537750000000         1.540931692763792E-014
   27.8668250000000         1.557166529128443E-014
   27.9798750000000         1.573512067917918E-014
   28.0929250000000         1.589966900698443E-014
   28.2059750000000         1.606529541710056E-014
   28.3190250000000         1.623198441591818E-014
   28.4320750000000         1.639972006190664E-014
   28.5451250000000         1.656848620438652E-014
   28.6581750000000         1.673826678627102E-014
   28.7712250000000         1.690904618970798E-014
   28.8842750000000         1.708080962880216E-014
   28.9973250000000         1.725354357603472E-014
   29.1103750000000         1.742723621183972E-014
   29.2234250000000         1.760187787138355E-014
   29.3364750000000         1.777746148468392E-014
   29.4495250000000         1.795398298014201E-014
   29.5625750000000         1.813144162904616E-014
   29.6756250000000         1.830984032224512E-014
   29.7886750000000         1.848918575555884E-014
   29.9017250000000         1.866948850819060E-014
   30.0147750000000         1.885076300210309E-014
   30.1278250000000         1.903302733420778E-014
   30.2408750000000         1.921630296828701E-014
   30.3539250000000         1.940061431212930E-014
   30.4669750000000         1.958598815263637E-014
   30.5800250000000         1.977245298420076E-014
   30.6930750000000         1.996003822997357E-014
   30.8061250000000         2.014877338605418E-014
   30.9191750000000         2.033868710367990E-014
   31.0322250000000         2.052980624646301E-014
   31.1452750000000         2.072215494320950E-014
   31.2583250000000         2.091575367558884E-014
   31.3713750000000         2.111061842807069E-014
   31.4844250000000         2.130675993716592E-014
   31.5974750000000         2.150418307106479E-014
   31.7105250000000         2.170288637037710E-014
   31.8235750000000         2.190286178072328E-014
   31.9366250000000         2.210409459112128E-014
   32.0496750000000         2.230656361177516E-014
   32.1627250000000         2.251024158891114E-014
   32.2757750000000         2.271509587370488E-014
   32.3888250000000         2.292108933511117E-014
   32.5018750000000         2.312818151062512E-014
   32.6149250000000         2.333632997345376E-014
   32.7279750000000         2.354549188610922E-014
   32.8410250000000         2.375562570405417E-014
   32.9540750000000         2.396669298177579E-014
   33.0671250000000         2.417866021233530E-014
   33.1801750000000         2.439150066127887E-014
   33.2932250000000         2.460519610299061E-014
   33.4062750000000         2.481973838346393E-014
   33.5193250000000         2.503513075278308E-014
   33.6323750000000         2.525138885920243E-014
   33.7454250000000         2.546854137120045E-014
   33.8584750000000         2.568663011992622E-014
   33.9715250000000         2.590570973368520E-014
   34.0845750000000         2.612584671537268E-014
   34.1976250000000         2.634711793144443E-014
   34.3106750000000         2.656960852156929E-014
   34.4237250000000         2.679340923326524E-014
   34.5367750000000         2.701861324613633E-014
   34.6498250000000         2.724531253910497E-014
   34.7628750000000         2.747359391163532E-014
   34.8759250000000         2.770353478564507E-014
   34.9889750000000         2.793519892541873E-014
   35.1020250000000         2.816863226004287E-014
   35.2150750000000         2.840385898802841E-014
   35.3281250000000         2.864087815854295E-014
   35.4411750000000         2.887966092386589E-014
   35.5542250000000         2.912014866610072E-014
   35.6672750000000         2.936225216273979E-014
   35.7803250000000         2.960585195364028E-014
   35.8933750000000         2.985080001469716E-014
   36.0064250000000         3.009692283189645E-014
   36.1194750000000         3.034402588897966E-014
   36.2325250000000         3.059189954801886E-014
   36.3455750000000         3.084032622355968E-014
   36.4586250000000         3.108908870238533E-014
   36.5716750000000         3.133797937738476E-014
   36.6847250000000         3.158681013007764E-014
   36.7977750000000         3.183542251083113E-014
   36.9108250000000         3.208369784068373E-014
   37.0238750000000         3.233156680778781E-014
   37.1369250000000         3.257901812212866E-014
   37.2499750000000         3.282610577978098E-014
   37.3630250000000         3.307295449704073E-014
   37.4760750000000         3.331976292732791E-014
   37.5891250000000         3.356680428767194E-014
   37.7021750000000         3.381442413953150E-014
   37.8152250000000         3.406303511107888E-014
   37.9282750000000         3.431310849285319E-014
   38.0413250000000         3.456516272569436E-014
   38.1543750000000         3.481974894376932E-014
   38.2674250000000         3.507743385965628E-014
   38.3804750000000         3.533878040696407E-014
   38.4935250000000         3.560432668990362E-014
   38.6065750000000         3.587456388468089E-014
   38.7196250000000         3.614991385542320E-014
   38.8326750000000         3.643070730057724E-014
   38.9457250000000         3.671716330548324E-014
   39.0587750000000         3.700937119225162E-014
   39.1718250000000         3.730727554254167E-014
   39.2848750000000         3.761066520968973E-014
   39.3979250000000         3.791916705899998E-014
   39.5109750000000         3.823224505472956E-014
   39.6240250000000         3.854920514858851E-014
   39.7370750000000         3.886920625881341E-014
   39.8501250000000         3.919127741207825E-014
   39.9631750000000         3.951434091005972E-014
   40.0762250000000         3.983724114437241E-014
   40.1892750000000         4.015877846350642E-014
   40.3023250000000         4.047774725758949E-014
   40.4153750000000         4.079297724017585E-014
   40.5284250000000         4.110337670566666E-014
   40.6414750000000         4.140797639153357E-014
   40.7545250000000         4.170597249322248E-014
   40.8675750000000         4.199676727966559E-014
   40.9806250000000         4.228000576230238E-014
   41.0936750000000         4.255560691838511E-014
   41.2067250000000         4.282378803618335E-014
   41.3197750000000         4.308508094060529E-014
   41.4328250000000         4.334033900830951E-014
   41.5458750000000         4.359073416070866E-014
   41.6589250000000         4.383774329216620E-014
   41.7719750000000         4.408312390660555E-014
   41.8850250000000         4.432887907200616E-014
   41.9980750000000         4.457721215448227E-014
   42.1111250000000         4.483047213232663E-014
   42.2241750000000         4.509109064018735E-014
   42.3372250000000         4.536151219195337E-014
   42.4502750000000         4.564411933555862E-014
   42.5633250000000         4.594115471921886E-014
   42.6763750000000         4.625464223346095E-014
   42.7894250000000         4.658630955047400E-014
   42.9024750000000         4.693751442816810E-014
   43.0155250000000         4.730917715606447E-014
   43.1285750000000         4.770172147195150E-014
   43.2416250000000         4.811502612401212E-014
   43.3546750000000         4.854838907572059E-014
   43.4677250000000         4.900050608846675E-014
   43.5807750000000         4.946946510860095E-014
   43.6938250000000         4.995275752072740E-014
   43.8068750000000         5.044730694309394E-014
   43.9199250000000         5.094951580208121E-014
   44.0329750000000         5.145532947583708E-014
   44.1460250000000         5.196031734360270E-014
   44.2590750000000         5.245976960315283E-014
   44.3721250000000         5.294880828171236E-014
   44.4851750000000         5.342251041424529E-014
   44.5982250000000         5.387604096807876E-014
   44.7112750000000         5.430479272674459E-014
   44.8243250000000         5.470452999717798E-014
   44.9373750000000         5.507153275463721E-014
   45.0504250000000         5.540273760720495E-014
   45.1634750000000         5.569587182344947E-014
   45.2765250000000         5.594957656451210E-014
   45.3895750000000         5.616351549041801E-014
   45.5026250000000         5.633846495849296E-014
   45.6156750000000         5.647638221057877E-014
   45.7287250000000         5.658044819732246E-014
   45.8417750000000         5.665508202323770E-014
   45.9548250000000         5.670592444313303E-014
   46.0678750000000         5.673978834413351E-014
   46.1809250000000         5.676457481290617E-014
   46.2939750000000         5.678915404674819E-014
   46.4070250000000         5.682321117809793E-014
   46.5200750000000         5.687705794208469E-014
   46.6331250000000         5.696141202718699E-014
   46.7461750000000         5.708714692085127E-014
   46.8592250000000         5.726501604268392E-014
   46.9722750000000         5.750535596183510E-014
   47.0853250000000         5.781777447311414E-014
   47.1983750000000         5.821083021143905E-014
   47.3114250000000         5.869171136680433E-014
   47.4244750000000         5.926592176899387E-014
   47.5375250000000         5.993698323295653E-014
   47.6505750000000         6.070616346233719E-014
   47.7636250000000         6.157223903987310E-014
   47.8766750000000         6.253130300108517E-014
   47.9897250000000         6.357662622721377E-014
   48.1027750000000         6.469858132350950E-014
   48.2158250000000         6.588463681724796E-014
   48.3288750000000         6.711942834499568E-014
   48.4419250000000         6.838491207555876E-014
   48.5549750000000         6.966060386640320E-014
   48.6680250000000         7.092390567812807E-014
   48.7810750000000         7.215051853353720E-014
   48.8941250000000         7.331493891869320E-014
   49.0071750000000         7.439103292477912E-014
   49.1202250000000         7.535267986275489E-014
   49.2332750000000         7.617447436751691E-014
   49.3463250000000         7.683247349927596E-014
   49.4593750000000         7.730497285275886E-014
   49.5724250000000         7.757329348995482E-014
   49.6854750000000         7.762255960505108E-014
   49.7985250000000         7.744244527853623E-014
   49.9115750000000         7.702786759975272E-014
   50.0246250000000         7.637960288131478E-014
   50.1376750000000         7.550480271623004E-014
   50.2507250000000         7.441738724423916E-014
   50.3637750000000         7.313829432187687E-014
   50.4768250000000         7.169556523747408E-014
   50.5898750000000         7.012425025846867E-014
   50.7029250000000         6.846612059545370E-014
   50.8159750000000         6.676917726411382E-014
   50.9290250000000         6.508695180947497E-014
   51.0420750000000         6.347759880848919E-014
   51.1551250000000         6.200278543451218E-014
   51.2681750000000         6.072638903889138E-014
   51.3812250000000         5.971301953812973E-014
   51.4942750000000         5.902638930113726E-014
   51.6073250000000         5.872755902861351E-014
   51.7203750000000         5.887309373112801E-014
   51.8334250000000         5.951316805420778E-014
   51.9464750000000         6.068966491018966E-014
   52.0595250000000         6.243431533955015E-014
   52.1725750000000         6.476693065932363E-014
   52.2856250000000         6.769378014433870E-014
   52.3986750000000         7.120616858972853E-014
   52.5117250000000         7.527926792439883E-014
   52.6247750000000         7.987125565484625E-014
   52.7378250000000         8.492281003758039E-014
   52.8508750000000         9.035700763403212E-014
   52.9639250000000         9.607966310677545E-014
   53.0769750000000         1.019801438902015E-013
   53.1900250000000         1.079326836488683E-013
   53.3030750000000         1.137982083505823E-013
   53.4161250000000         1.194266773696575E-013
   53.5291750000000         1.246599294874207E-013
   53.6422250000000         1.293350101096737E-013
   53.7552750000000         1.332879417064455E-013
   53.8683250000000         1.363578846713201E-013
   53.9813750000000         1.383916207690355E-013
   54.0944250000000         1.392482764585100E-013
   54.2074750000000         1.388041890192552E-013
   54.3205250000000         1.369578049521936E-013
   54.4335750000000         1.336344880749753E-013
   54.5466250000000         1.287911044723678E-013
   54.6596750000000         1.224202435133749E-013
   54.7727250000000         1.145539289399034E-013
   54.8857750000000         1.052666720546254E-013
   54.9988250000000         9.467772067666729E-014
   55.1118750000000         8.295236317019305E-014
   55.2249250000000         7.030215683015224E-014
   55.3379750000000         5.698396441511254E-014
   55.4510250000000         4.329770183507749E-014
   55.5640750000000         2.958272390167303E-014
   55.6771250000000         1.621280356016850E-014
   55.7901750000000         3.589692867304566E-015
   55.9032250000000        -7.864709253645576E-015
   56.0162750000000        -1.771751729819871E-014
   56.1293250000000        -2.553523962045961E-014
   56.2423750000000        -3.089522666808448E-014
   56.3554250000000        -3.339798960003605E-014
   56.4684750000000        -3.268014732340600E-014
   56.5815250000000        -2.842771740333065E-014
   56.6945750000000        -2.038942699774124E-014
   56.8076250000000        -8.389685510322629E-015
   56.9206750000000         7.659167455969646E-015
   57.0337250000000         2.774574552419391E-014
   57.1467750000000         5.175004799213531E-014
   57.2598250000000         7.943585932422378E-014
   57.3728750000000         1.104455223001851E-013
   57.4859250000000         1.442974673797830E-013
   57.5989750000000         1.803868434424561E-013
   57.7120250000000         2.179895440652054E-013
   57.8250750000000         2.562698589341563E-013
   57.9381250000000         2.942919023382043E-013
   58.0511750000000         3.310348808772389E-013
   58.1642250000000         3.654121619463567E-013
   58.2772750000000         3.962939949901779E-013
   58.3903250000000         4.225336213164963E-013
   58.5033750000000         4.429963881308109E-013
   58.6164250000000         4.565913614027834E-013
   58.7294750000000         4.623048137681628E-013
   58.8425250000000         4.592348514625956E-013
   58.9555750000000         4.466263421630483E-013
   59.0686250000000         4.239052175181278E-013
   59.1816750000000         3.907111538502448E-013
   59.2947250000000         3.469275857869939E-013
   59.4077750000000         2.927079837563298E-013
   59.5208250000000         2.284973303348583E-013
   59.6338750000000         1.550477648319600E-013
   59.7469250000000         7.342743186096757E-014
   59.8599750000000        -1.497833092637794E-014
   59.9730250000000        -1.084741982997755E-013
   60.0860750000000        -2.050710237759487E-013
   60.1991250000000        -3.025113395133492E-013
   60.3121750000000        -3.983043400729530E-013
   60.4252250000000        -4.897702545285780E-013
   60.5382750000000        -5.740937471363841E-013
   60.6513250000000        -6.483857098607077E-013
   60.7643750000000        -7.097525273762385E-013
   60.8774250000000        -7.553716140375736E-013
   60.9904750000000        -7.825717507892802E-013
   61.1035250000000        -7.889164964256796E-013
   61.2165750000000        -7.722887204598970E-013
   61.3296250000000        -7.309741125114428E-013
   61.4426750000000        -6.637413737029058E-013
   61.5557250000000        -5.699166963729377E-013
   61.6687750000000        -4.494500962198736E-013
   61.7818250000000        -3.029711811368307E-013
   61.8948750000000        -1.318320277102471E-013
   62.0079250000000         6.186500779645003E-014
   62.1209750000000         2.752564913229213E-013
   62.2340250000000         5.047257783156172E-013
   62.3470750000000         7.459308382134186E-013
   62.4601250000000         9.938529061476650E-013
   62.5731750000000         1.242866356182247E-012
   62.6862250000000         1.486829669807449E-012
   62.7992750000000         1.719196818529312E-012
   62.9123250000000         1.933147802914289E-012
   63.0253750000000         2.121736505905604E-012
   63.1384250000000         2.278053440850898E-012
   63.2514750000000         2.395400419850978E-012
   63.3645250000000         2.467473652052666E-012
   63.4775750000000         2.488551320156307E-012
   63.5906250000000         2.453681292368871E-012
   63.7036750000000         2.358864320687226E-012
   63.8167250000000         2.201227868094099E-012
   63.9297750000000         1.979185608234813E-012
   64.0428250000000         1.692577660578299E-012
   64.1558750000000         1.342786768532658E-012
   64.2689250000000         9.328259010886765E-013
   64.3819750000000         4.673931608508197E-013
   64.4950250000000        -4.710959006488791E-014
   64.6080750000000        -6.025973259297125E-013
   64.7211250000000        -1.189363855459599E-012
   64.8341750000000        -1.796186545309282E-012
   64.9472250000000        -2.410474153678423E-012
   65.0602750000000        -3.018457157288494E-012
   65.1733250000000        -3.605418912209705E-012
   65.2863750000000        -4.155964928157938E-012
   65.3994250000000        -4.654326481910252E-012
   65.5124750000000        -5.084693774146649E-012