 -0.847875000000000         2.326848767910485E-019
 -0.734825000000000         8.996876574072158E-018
 -0.621775000000000         6.297304937739938E-017
 -0.508725000000000         3.064179972296202E-016
 -0.395675000000000         1.203701729881888E-015
 -0.282625000000000         3.980297734042345E-015
 -0.169575000000000         1.130238694645825E-014
 -5.652500000000005E-002    2.800633769951995E-014
  5.652499999999994E-002    6.153433768175670E-014
  0.169575000000000         1.218773378609048E-013
  0.282625000000000         2.212170128304021E-013
  0.395675000000000         3.736940265424337E-013
  0.508725000000000         5.954958295981048E-013
  0.621775000000000         9.050288418314381E-013
  0.734825000000000         1.323007331372986E-012
  0.847875000000000         1.871892993585264E-012
  0.960925000000000         2.575311947491375E-012
   1.07397500000000         3.457066807441276E-012
   1.18702500000000         4.539943041765734E-012
   1.30007500000000         5.844478330748257E-012
   1.41312500000000         7.387803110314614E-012
   1.52617500000000         9.182652288685876E-012
   1.63922500000000         1.123615775003112E-011
   1.75227500000000         1.354851976932225E-011
   1.86532500000000         1.611302880163310E-011
   1.97837500000000         1.891471204677370E-011
   2.09142500000000         2.193044039515366E-011
   2.20447500000000         2.512849242681229E-011
   2.31752500000000         2.847008037378819E-011
   2.43057500000000         3.190773083586692E-011
   2.54362500000000         3.538740306899546E-011
   2.65667500000000         3.885269564571404E-011
   2.76972500000000         4.223890182395697E-011
   2.88277500000000         4.548412211226906E-011
   2.99582500000000         4.852332023993075E-011
   3.10887500000000         5.129702106246014E-011
   3.22192500000000         5.374460189509058E-011
   3.33497500000000         5.582005673538515E-011
   3.44802500000000         5.747828114793336E-011
   3.56107500000000         5.869028782738071E-011
   3.67412500000000         5.943476343577133E-011
   3.78717500000000         5.970803253163878E-011
   3.90022500000000         5.951464915526619E-011
   4.01327500000000         5.887689483840104E-011
   4.12632500000000         5.782922378181529E-011
   4.23937500000000         5.641849394939321E-011
   4.35242500000000         5.470252474822027E-011
   4.46547500000000         5.274861976780539E-011
   4.57852500000000         5.063185495091548E-011
   4.69157500000000         4.843213768917352E-011
   4.80462500000000         4.622709946096324E-011
   4.91767500000000         4.409644985192986E-011
   5.03072500000000         4.211756135066358E-011
   5.14377500000000         4.035824256522990E-011
   5.25682500000000         3.887706182103290E-011
   5.36987500000000         3.772255040322516E-011
   5.48292500000000         3.693005208310037E-011
   5.59597500000000         3.652067075557915E-011
   5.70902500000000         3.650147614251546E-011
   5.82207500000000         3.686478244903540E-011
   5.93512500000000         3.759037115382371E-011
   6.04817500000000         3.864533690520287E-011
   6.16122500000000         3.998627604264975E-011
   6.27427500000000         4.156293102468735E-011
   6.38732500000000         4.331920882119473E-011
   6.50037500000000         4.519621251956011E-011
   6.61342500000000         4.713779440143765E-011
   6.72647500000000         4.908840026057483E-011
   6.83952500000000         5.100031414287870E-011
   6.95257500000000         5.283489806680178E-011
   7.06562500000000         5.456201040274643E-011
   7.17867500000000         5.616413004769219E-011
   7.29172500000000         5.763776820840044E-011
   7.40477500000000         5.899083576874124E-011
   7.51782500000000         6.024316188090024E-011
   7.63087500000000         6.142774534999239E-011
   7.74392500000000         6.258571691450104E-011
   7.85697500000000         6.376474288069575E-011
   7.97002500000000         6.502149661701948E-011
   8.08307500000000         6.641003535169676E-011
   8.19612500000000         6.798799239881581E-011
   8.30917500000000         6.980684830581558E-011
   8.42222500000000         7.191477727817854E-011
   8.53527500000000         7.434739737646433E-011
   8.64832500000000         7.713377331718890E-011
   8.76137500000000         8.028806123676939E-011
   8.87442500000000         8.381290408225607E-011
   8.98747500000000         8.769590085547284E-011
   9.10052500000000         9.191246528103176E-011
   9.21357500000000         9.642496382763730E-011
   9.32662500000000         1.011841809806138E-010
   9.43967500000000         1.061306749709916E-010
   9.55272500000000         1.111982362708121E-010
   9.66577500000000         1.163159656646214E-010
   9.77882500000000         1.214069516330980E-010
   9.89187500000000         1.264017346989909E-010
   10.0049250000000         1.312256767818153E-010
   10.1179750000000         1.358134456670783E-010
   10.2310250000000         1.401050443713877E-010
   10.3440750000000         1.440505151474815E-010
   10.4571250000000         1.476084413173147E-010
   10.5701750000000         1.507478982192369E-010
   10.6832250000000         1.534525325390974E-010
   10.7962750000000         1.557114202355144E-010
   10.9093250000000         1.575282342438058E-010
   11.0223750000000         1.589129067654546E-010
   11.1354250000000         1.598859679550688E-010
   11.2484750000000         1.604735491572558E-010
   11.3615250000000         1.607067600225985E-010
   11.4745750000000         1.606209453152565E-010
   11.5876250000000         1.602549910460938E-010
   11.7006750000000         1.596454608749521E-010
   11.8137250000000         1.588335976019112E-010
   11.9267750000000         1.578546863981358E-010
   12.0398250000000         1.567493296820713E-010
   12.1528750000000         1.555494224218828E-010
   12.2659250000000         1.542923656533452E-010
   12.3789750000000         1.530094901150590E-010
   12.4920250000000         1.517364254616773E-010
   12.6050750000000         1.505055533897506E-010
   12.7181250000000         1.493515890956533E-010
   12.8311750000000         1.483109358820000E-010
   12.9442250000000         1.474222923689791E-010
   13.0572750000000         1.467259704881193E-010
   13.1703250000000         1.462646777063542E-010
   13.2833750000000         1.460832711726782E-010
   13.3964250000000         1.462273937519533E-010
   13.5094750000000         1.467435379168592E-010
   13.6225250000000         1.476762546456752E-010
   13.7355750000000         1.490679992303534E-010
   13.8486250000000         1.509560415669622E-010
   13.9616750000000         1.533699977219372E-010
   14.0747250000000         1.563326679627066E-010
   14.1877750000000         1.598579974762645E-010
   14.3008250000000         1.639426579660052E-010
   14.4138750000000         1.685758716276396E-010
   14.5269250000000         1.737287254820505E-010
   14.6399750000000         1.793601053751501E-010
   14.7530250000000         1.854144164210838E-010
   14.8660750000000         1.918242880315442E-010
   14.9791250000000         1.985051443468127E-010
   15.0921750000000         2.053696940659210E-010
   15.2052250000000         2.123174690418581E-010
   15.3182750000000         2.192483601230596E-010
   15.4313250000000         2.260569282871457E-010
   15.5443750000000         2.326439666725814E-010
   15.6574250000000         2.389125498888302E-010
   15.7704750000000         2.447804667632009E-010
   15.8835250000000         2.501701508075270E-010
   15.9965750000000         2.550272636212476E-010
   16.1096250000000         2.593071368020043E-010
   16.2226750000000         2.629878556681010E-010
   16.3357250000000         2.660664165981611E-010
   16.4487750000000         2.685594441764708E-010
   16.5618250000000         2.704988645348571E-010
   16.6748750000000         2.719357886769172E-010
   16.7879250000000         2.729340807244243E-010
   16.9009750000000         2.735702022110542E-010
   17.0140250000000         2.739284312603518E-010
   17.1270750000000         2.740967009520967E-010
   17.2401250000000         2.741650126552302E-010
   17.3531750000000         2.742181048458308E-010
   17.4662250000000         2.743365341566903E-010
   17.5792750000000         2.745889621035698E-010
   17.6923250000000         2.750333346238338E-010
   17.8053750000000         2.757135932362341E-010
   17.9184250000000         2.766578577537027E-010
   18.0314750000000         2.778782341742682E-010
   18.1445250000000         2.793743667579843E-010
   18.2575750000000         2.811270138555125E-010
   18.3706250000000         2.831102134269027E-010
   18.4836750000000         2.852841170831206E-010
   18.5967250000000         2.876048971329664E-010
   18.7097750000000         2.900245924157262E-010
   18.8228250000000         2.924945159849115E-010
   18.9358750000000         2.949688394434601E-010
   19.0489250000000         2.974093900650116E-010
   19.1619750000000         2.997826957394935E-010
   19.2750250000000         3.020719755147662E-010
   19.3880750000000         3.042671678782987E-010
   19.5011250000000         3.063744461033771E-010
   19.6141750000000         3.084108622940981E-010
   19.7272250000000         3.104070747203207E-010
   19.8402750000000         3.124018797910945E-010
   19.9533250000000         3.144461234974167E-010
   20.0663750000000         3.165929542138977E-010
   20.1794250000000         3.189019069903603E-010
   20.2924750000000         3.214286101167240E-010
   20.4055250000000         3.242271680014218E-010
   20.5185750000000         3.273472877134337E-010
   20.6316250000000         3.308256703758587E-010
   20.7446750000000         3.346910172388691E-010
   20.8577250000000         3.389573663482129E-010
   20.9707750000000         3.436246477654022E-010
   21.0838250000000         3.486802700825659E-010
   21.1968750000000         3.540956638733977E-010
   21.3099250000000         3.598305103215838E-010
   21.4229750000000         3.658342336825908E-010
   21.5360250000000         3.720467013104344E-010
   21.6490750000000         3.784036587129543E-010
   21.7621250000000         3.848371037148836E-010
   21.8751750000000         3.912790829464430E-010
   21.9882250000000         3.976670186137817E-010
   22.1012750000000         4.039436417568591E-010
   22.2143250000000         4.100614289964945E-010
   22.3273750000000         4.159846797316267E-010
   22.4404250000000         4.216898164229130E-010
   22.5534750000000         4.271674567986600E-010
   22.6665250000000         4.324209639950813E-010
   22.7795750000000         4.374699776707462E-010
   22.8926250000000         4.423428718001200E-010
   23.0056750000000         4.470805777822268E-010
   23.1187250000000         4.517315614064061E-010
   23.2317750000000         4.563509349510151E-010
   23.3448250000000         4.609947078438983E-010
   23.4578750000000         4.657215911332253E-010
   23.5709250000000         4.705851412420249E-010
   23.6839750000000         4.756354789059501E-010
   23.7970250000000         4.809141749775066E-010
   23.9100750000000         4.864526372973866E-010
   24.0231250000000         4.922741134809160E-010
   24.1361750000000         4.983873052112140E-010
   24.2492250000000         5.047923746005752E-010
   24.3622750000000         5.114755260779630E-010
   24.4753250000000         5.184148365485585E-010
   24.5883750000000         5.255777248176055E-010
   24.7014250000000         5.329272860248806E-010
   24.8144750000000         5.404185709269351E-010
   24.9275250000000         5.480059840833317E-010
   25.0405750000000         5.556402910181449E-010
   25.1536250000000         5.632768702613882E-010
   25.2666750000000         5.708727676244628E-010
   25.3797250000000         5.783900021237391E-010
   25.4927750000000         5.857974879426660E-010
   25.6058250000000         5.930714231266874E-010
   25.7188750000000         6.001955688009560E-010
   25.8319250000000         6.071624000306890E-010
   25.9449750000000         6.139719476823518E-010
   26.0580250000000         6.206315867380949E-010
   26.1710750000000         6.271561214083272E-010
   26.2841250000000         6.335659104892526E-010
   26.3971750000000         6.398846305330971E-010
   26.5102250000000         6.461406775622345E-010
   26.6232750000000         6.523644266267429E-010
   26.7363250000000         6.585860205799045E-010
   26.8493750000000         6.648365166639895E-010
   26.9624250000000         6.711427527709234E-010
   27.0754750000000         6.775325765372973E-010
   27.1885250000000         6.840281545870788E-010
   27.3015750000000         6.906488547381124E-010
   27.4146250000000         6.974091130330798E-010
   27.5276750000000         7.043181813611781E-010
   27.6407250000000         7.113804345572798E-010
   27.7537750000000         7.185937410252593E-010
   27.8668250000000         7.259522367967816E-010
   27.9798750000000         7.334415566740220E-010
   28.0929250000000         7.410429950930420E-010
   28.2059750000000         7.487314228695542E-010
   28.3190250000000         7.564754510073264E-010
   28.4320750000000         7.642383574261002E-010
   28.5451250000000         7.719796589580203E-010
   28.6581750000000         7.796525981575832E-010
   28.7712250000000         7.872081746961656E-010
   28.8842750000000         7.945953196888012E-010
   28.9973250000000         8.017630744168386E-010
   29.1103750000000         8.086612892168566E-010
   29.2234250000000         8.152453996173042E-010
   29.3364750000000         8.214760104072825E-010
   29.4495250000000         8.273227906235912E-010
   29.5625750000000         8.327683734152775E-010
   29.6756250000000         8.378089895737260E-010
   29.7886750000000         8.424585590738463E-010
   29.9017250000000         8.467501920094090E-010
   30.0147750000000         8.507368418448262E-010
   30.1278250000000         8.544910430437858E-010
   30.2408750000000         8.581095918164138E-010
   30.3539250000000         8.617059291275689E-010
   30.4669750000000         8.654119532660453E-010
   30.5800250000000         8.693718795992253E-010
   30.6930750000000         8.737396724043237E-010
   30.8061250000000         8.786713942235097E-010
   30.9191750000000         8.843188943681308E-010
   31.0322250000000         8.908224975148168E-010
   31.1452750000000         8.983032642086076E-010
   31.2583250000000         9.068540906047802E-010
   31.3713750000000         9.165308215924138E-010
   31.4844250000000         9.273469938264840E-010
   31.5974750000000         9.392674451643752E-010
   31.7105250000000         9.522015246722604E-010
   31.8235750000000         9.660023077519646E-010
   31.9366250000000         9.804653784148489E-010
   32.0496750000000         9.953303245771641E-010
   32.1627250000000         1.010287083826649E-009
   32.2757750000000         1.024981861240944E-009
   32.3888250000000         1.039028435271021E-009
   32.5018750000000         1.052020515991592E-009
   32.6149250000000         1.063547641962206E-009
   32.7279750000000         1.073213991877000E-009
   32.8410250000000         1.080653714192542E-009
   32.9540750000000         1.085551457076737E-009
   33.0671250000000         1.087665049346736E-009
   33.1801750000000         1.086839884253012E-009
   33.2932250000000         1.083024743321380E-009
   33.4062750000000         1.076290729285862E-009
   33.5193250000000         1.066834957260845E-009
   33.6323750000000         1.054994623756691E-009
   33.7454250000000         1.041239953306791E-009
   33.8584750000000         1.026175123760786E-009
   33.9715250000000         1.010527781182142E-009
   34.0845750000000         9.951283957163765E-010
   34.1976250000000         9.808954276356367E-010
   34.3106750000000         9.687999098704089E-010
   34.4237250000000         9.598384804897723E-010
   34.5367750000000         9.549931072496195E-010
   34.6498250000000         9.551908540070136E-010
   34.7628750000000         9.612649171959746E-010
   34.8759250000000         9.739042263083857E-010
   34.9889750000000         9.936191505198787E-010
   35.1020250000000         1.020699641536662E-009
   35.2150750000000         1.055177641745041E-009
   35.3281250000000         1.096800575717063E-009
   35.4411750000000         1.145011195802596E-009
   35.5542250000000         1.198933875513577E-009
   35.6672750000000         1.257377827380655E-009
   35.7803250000000         1.318841599254937E-009
   35.8933750000000         1.381545342294758E-009
   36.0064250000000         1.443460582265259E-009
   36.1194750000000         1.502365915896094E-009
   36.2325250000000         1.555906579991518E-009
   36.3455750000000         1.601672306932875E-009
   36.4586250000000         1.637278833751848E-009
   36.5716750000000         1.660465519910799E-009
   36.6847250000000         1.669194425008697E-009
   36.7977750000000         1.661748933371653E-009
   36.9108250000000         1.636840217842178E-009
   37.0238750000000         1.593701897693925E-009
   37.1369250000000         1.532180648470536E-009
   37.2499750000000         1.452811311226423E-009
   37.3630250000000         1.356879703961868E-009
   37.4760750000000         1.246454572610653E-009
   37.5891250000000         1.124408730151537E-009
   37.7021750000000         9.943961091928707E-010
   37.8152250000000         8.608115872831804E-010
   37.9282750000000         7.287072683674450E-010
   38.0413250000000         6.036766535389966E-010
   38.1543750000000         4.917124711911533E-010
   38.2674250000000         3.990177951553639E-010
   38.3804750000000         3.318025067461305E-010
   38.4935250000000         2.960402671337706E-010
   38.6065750000000         2.972196999826522E-010
   38.7196250000000         3.400744851879547E-010
   38.8326750000000         4.283116828984754E-010
   38.9457250000000         5.643538017988309E-010
   39.0587750000000         7.490907380704966E-010
   39.1718250000000         9.816675408195596E-010
   39.2848750000000         1.259311553053641E-009
   39.3979250000000         1.577215752130885E-009
   39.5109750000000         1.928481142779166E-009
   39.6240250000000         2.304141717412276E-009
   39.7370750000000         2.693269651619479E-009
   39.8501250000000         3.083163154175928E-009
   39.9631750000000         3.459635473193136E-009
   40.0762250000000         3.807388295014641E-009
   40.1892750000000         4.110471756321689E-009
   40.3023250000000         4.352826316528195E-009
   40.4153750000000         4.518890553572021E-009
   40.5284250000000         4.594252863930606E-009
   40.6414750000000         4.566341869299787E-009
   40.7545250000000         4.425113282453775E-009
   40.8675750000000         4.163719880550885E-009
   40.9806250000000         3.779131232025029E-009
   41.0936750000000         3.272665811229591E-009
   41.2067250000000         2.650425815431409E-009
   41.3197750000000         1.923573810124703E-009
   41.4328250000000         1.108454971494453E-009
   41.5458750000000         2.265260960365269E-010
   41.6589250000000        -6.959262964938633E-010
   41.7719750000000        -1.628282961608557E-009
   41.8850250000000        -2.536310781562154E-009
   41.9980750000000        -3.383102293467738E-009
   42.1111250000000        -4.130210456530885E-009
   42.2241750000000        -4.738969961370413E-009
   42.3372250000000        -5.171951736097993E-009
   42.4502750000000        -5.394525732634756E-009
   42.5633250000000        -5.376469975044907E-009
   42.6763750000000        -5.093566840801843E-009
   42.7894250000000        -4.529127972089339E-009
   42.9024750000000        -3.675379711182748E-009
   43.0155250000000        -2.534629059344847E-009
   43.1285750000000        -1.120165114230512E-009
   43.2416250000000         5.431862014587931E-010
   43.3546750000000         2.418895172302968E-009
   43.4677250000000         4.458997573725538E-009
   43.5807750000000         6.604831015291899E-009
   43.6938250000000         8.788247012053138E-009
   43.8068750000000         1.093330084674875E-008
   43.9199250000000         1.295839288389759E-008
   44.0329750000000         1.477882253531436E-008
   44.1460250000000         1.630968400770900E-008
   44.2590750000000         1.746903304644832E-008
   44.3721250000000         1.818121609766379E-008
   44.4851750000000         1.838024968758019E-008
   44.5982250000000         1.801313247155528E-008
   44.7112750000000         1.704293951853722E-008
   44.8243250000000         1.545157751443277E-008
   44.9373750000000         1.324206555146399E-008
   45.0504250000000         1.044020239062591E-008
   45.1634750000000         7.095522821421617E-009
   45.2765250000000         3.281439066577990E-009
   45.3895750000000        -9.054916710504529E-010
   45.5026250000000        -5.347235111754748E-009
   45.6156750000000        -9.906862336489453E-009
   45.7287250000000        -1.443205369782831E-008
   45.8417750000000        -1.875942698929308E-008
   45.9548250000000        -2.271962746975518E-008
   46.0678750000000        -2.614300411275378E-008
   46.1809250000000        -2.886573857354562E-008
   46.2939750000000        -3.073621187672645E-008
   46.4070250000000        -3.162138805303904E-008
   46.5200750000000        -3.141298798214557E-008
   46.6331250000000        -3.003320367171939E-008
   46.7461750000000        -2.743971055492970E-008
   46.8592250000000        -2.362974180222169E-008
   46.9722750000000        -1.864301670773074E-008
   47.0853250000000        -1.256333190096846E-008
   47.1983750000000        -5.518672978648701E-009
   47.3114250000000         2.320256560481480E-009
   47.4244750000000         1.074314078120015E-008
   47.5375250000000         1.950477485837627E-008
   47.6505750000000         2.833134866402212E-008
   47.7636250000000         3.692815151248041E-008
   47.8766750000000         4.498850988763205E-008
   47.9897250000000         5.220371108033635E-008
   48.1027750000000         5.827361959168356E-008
   48.2158250000000         6.291763645479071E-008
   48.3288750000000         6.588563879616421E-008
   48.4419250000000         6.696850027257307E-008
   48.5549750000000         6.600780163799904E-008
   48.6680250000000         6.290432861886982E-008
   48.7810750000000         5.762500268014072E-008
   48.8941250000000         5.020789322727309E-008
   49.0071750000000         4.076505583315771E-008
   49.1202250000000         2.948294935186093E-008
   49.2332750000000         1.662032133882252E-008
   49.3463250000000         2.503472175971509E-009
   49.4593750000000        -1.248105227244400E-008
   49.5724250000000        -2.789621226052909E-008
   49.6854750000000        -4.326647306764009E-008
   49.7985250000000        -5.809172821527467E-008
   49.9115750000000        -7.186276368490706E-008
   50.0246250000000        -8.407780022520065E-008
   50.1376750000000        -9.425960756031238E-008
   50.2507250000000        -1.019726020629247E-007
   50.3637750000000        -1.068393649502399E-007
   50.4768250000000        -1.085559757188279E-007
   50.5898750000000        -1.069055784187986E-007
   50.7029250000000        -1.017696552522358E-007
   50.8159750000000        -9.313650075261603E-008
   50.9290250000000        -8.110650876951998E-008
   51.0420750000000        -6.589394002735857E-008
   51.1551250000000        -4.782496812685996E-008
   51.2681750000000        -2.733192381780462E-008
   51.3812250000000        -4.943756304268855E-009
   51.4942750000000         1.872709507572125E-008
   51.6073250000000         4.300114840701138E-008
   51.7203750000000         6.715119329234319E-008
   51.8334250000000         9.042396445080272E-008
   51.9464750000000         1.120635185445172E-007
   52.0595250000000         1.313356069089504E-007
   52.1725750000000         1.475522632381295E-007
   52.2856250000000         1.600957942495540E-007
   52.3986750000000         1.684413535908878E-007
   52.5117250000000         1.721772867105711E-007
   52.6247750000000         1.710225003244053E-007
   52.7378250000000         1.648401657578165E-007
   52.8508750000000         1.536471650262091E-007
   52.9639250000000         1.376188276839932E-007
   53.0769750000000         1.170886239709357E-007
   53.1900250000000         9.254265840881350E-008
   53.3030750000000         6.460895397062794E-008
   53.4161250000000         3.404171825379371E-008
   53.5291750000000         1.700926220869101E-009
   53.6422250000000        -3.147225911970720E-008
   53.7552750000000        -6.448354817610121E-008
   53.8683250000000        -9.631626769106363E-008
   53.9813750000000        -1.259638482020102E-007
   54.0944250000000        -1.524630379611297E-007
   54.2074750000000        -1.749267614163104E-007
   54.3205250000000        -1.925755203681812E-007
   54.4335750000000        -2.047662299203361E-007
   54.5466250000000        -2.110174476586989E-007
   54.6596750000000        -2.110300131272768E-007
   54.7727250000000        -2.047022454304679E-007
   54.8857750000000        -1.921389923740968E-007
   54.9988250000000        -1.736539951590129E-007
   55.1118750000000        -1.497652428120511E-007
   55.2249250000000        -1.211832018879509E-007
   55.3379750000000        -8.879204675077206E-008
   55.4510250000000        -5.362424319586933E-008
   55.5640750000000        -1.682908914818995E-008
   55.6771250000000         2.036396838393976E-008
   55.7901750000000         5.668621428612965E-008
   55.9032250000000         9.087352405173631E-008
   56.0162750000000         1.217118134371983E-007
   56.1293250000000         1.480826194932686E-007
   56.2423750000000         1.690072141943045E-007
   56.3554250000000         1.836876880895153E-007
   56.4684750000000         1.915434101677128E-007
   56.5815250000000         1.922413817172742E-007
   56.6945750000000         1.857191143744513E-007
   56.8076250000000         1.721988326633876E-007
   56.9206750000000         1.521920399759730E-007
   57.0337250000000         1.264937515442859E-007
   57.1467750000000         9.616600648039300E-008
   57.2598250000000         6.251060185313323E-008
   57.3728750000000         2.703136651624877E-008
   57.4859250000000        -8.613355424637167E-009
   57.5989750000000        -4.266694871986539E-008
   57.7120250000000        -7.333809044931845E-008
   57.8250750000000        -9.886987731759148E-008
   57.9381250000000        -1.176124579035808E-007
   58.0511750000000        -1.280968454103629E-007
   58.1642250000000        -1.291074048309141E-007
   58.2772750000000        -1.197503589845891E-007
   58.3903250000000        -9.951558866980048E-008
   58.5033750000000        -6.832907519587717E-008
   58.6164250000000        -2.659339772019862E-008
   58.7294750000000         2.478605981927684E-008
   58.8425250000000         8.439125130148435E-008
   58.9555750000000         1.502996205327543E-007
   59.0686250000000         2.201114639837538E-007
   59.1816750000000         2.909971343957522E-007
   59.2947250000000         3.597641173196420E-007
   59.4077750000000         4.229433496187438E-007
   59.5208250000000         4.768934452268033E-007
   59.6338750000000         5.179207790687762E-007
   59.7469250000000         5.424127090158286E-007
   59.8599750000000         5.469805061766278E-007
   59.9730250000000         5.286079836395125E-007
   60.0860750000000         4.848012581344469E-007
   60.1991250000000         4.137346620680089E-007
   60.3121750000000         3.143875095676431E-007
   60.4252250000000         1.866662562209630E-007
   60.5382750000000         3.150661411674496E-008
   60.6513250000000        -1.490496642839961E-007
   60.7643750000000        -3.518082266552386E-007
   60.8774250000000        -5.724101430464541E-007
   60.9904750000000        -8.053581103368589E-007
   61.1035250000000        -1.044083516456176E-006
   61.2165750000000        -1.281055949041813E-006
   61.3296250000000        -1.507935495162038E-006
   61.4426750000000        -1.715766819558700E-006
   61.5557250000000        -1.895212560091311E-006
   61.6687750000000        -2.036822100467055E-006
   61.7818250000000        -2.131330269870935E-006
   61.8948750000000        -2.169979086350493E-006
   62.0079250000000        -2.144854298947887E-006
   62.1209750000000        -2.049227269560613E-006
   62.2340250000000        -1.877891747150597E-006
   62.3470750000000        -1.627484301345703E-006
   62.4601250000000        -1.296776732260884E-006
   62.5731750000000        -8.869286207394627E-007
   62.6862250000000        -4.016884305032992E-007
   62.7992750000000         1.524678321223649E-007
   62.9123250000000         7.662703389493922E-007
   63.0253750000000         1.427670112835212E-006
   63.1384250000000         2.121941342178987E-006
   63.2514750000000         2.831875908481766E-006
   63.3645250000000         3.538072157641720E-006
   63.4775750000000         4.219317183863779E-006
   63.5906250000000         4.853058894102734E-006
   63.7036750000000         5.415961033135628E-006
   63.8167250000000         5.884531178700387E-006
   63.9297750000000         6.235808627604470E-006
   64.0428250000000         6.448096168729608E-006
   64.1558750000000         6.501717063864299E-006
   64.2689250000000         6.379776283233403E-006
   64.3819750000000         6.068903201404410E-006
   64.4950250000000         5.559951759046995E-006
   64.6080750000000         4.848633446242394E-006
   64.7211250000000         3.936058653381529E-006
   64.8341750000000         2.829162809236885E-006
   64.9472250000000         1.540995429194935E-006
   65.0602750000000         9.085274219038732E-008
   65.1733250000000        -1.495762159566506E-006
   65.2863750000000        -3.187363641777472E-006
   65.3994250000000        -4.946899608803785E-006
   65.5124750000000        -6.732361339477094E-006