 -0.847875000000000        -6.131647673482292E-018
 -0.734825000000000        -6.128673890369724E-018
 -0.621775000000000        -6.010717303085354E-018
 -0.508725000000000        -5.087946095410383E-018
 -0.395675000000000        -2.490601916967039E-019
 -0.282625000000000         1.997349793968077E-017
 -0.169575000000000         9.106546515218396E-017
 -5.652500000000005E-002    3.066053565124746E-016
  5.652499999999994E-002    8.800747155897844E-016
  0.169575000000000         2.239971524377093E-015
  0.282625000000000         5.157497578921469E-015
  0.395675000000000         1.090224397558476E-014
  0.508725000000000         2.142291307390339E-014
  0.621775000000000         3.955419901197425E-014
  0.734825000000000         6.925202731987553E-014
  0.847875000000000         1.158582895324413E-013
  0.960925000000000         1.863879104506573E-013
   1.07397500000000         2.898307970896773E-013
   1.18702500000000         4.374560432905059E-013
   1.30007500000000         6.431031348978709E-013
   1.41312500000000         9.234444275268933E-013
   1.52617500000000         1.298204078716178E-012
   1.63922500000000         1.790320803907185E-012
   1.75227500000000         2.426039024081309E-012
   1.86532500000000         3.234911425334602E-012
   1.97837500000000         4.249713208863978E-012
   2.09142500000000         5.506250734051516E-012
   2.20447500000000         7.043065921447337E-012
   2.31752500000000         8.901030843426782E-012
   2.43057500000000         1.112285200478255E-011
   2.54362500000000         1.375246361830927E-011
   2.65667500000000         1.683433694774719E-011
   2.76972500000000         2.041275948047776E-011
   2.88277500000000         2.453100795578632E-011
   2.99582500000000         2.923055727063658E-011
   3.10887500000000         3.455024929645755E-011
   3.22192500000000         4.052553276880563E-011
   3.33497500000000         4.718768851111507E-011
   3.44802500000000         5.456324146406985E-011
   3.56107500000000         6.267338423727529E-011
   3.67412500000000         7.153360664272671E-011
   3.78717500000000         8.115342330390325E-011
   3.90022500000000         9.153632668251399E-011
   4.01327500000000         1.026798452805103E-010
   4.12632500000000         1.145758284048022E-010
   4.23937500000000         1.272108865023657E-010
   4.35242500000000         1.405669900191971E-010
   4.46547500000000         1.546222083498243E-010
   4.57852500000000         1.693515699975417E-010
   4.69157500000000         1.847280220676679E-010
   4.80462500000000         2.007234515081832E-010
   4.91767500000000         2.173096772635074E-010
   5.03072500000000         2.344594689871153E-010
   5.14377500000000         2.521475358853469E-010
   5.25682500000000         2.703513933319305E-010
   5.36987500000000         2.890521113888984E-010
   5.48292500000000         3.082349350510906E-010
   5.59597500000000         3.278897359502458E-010
   5.70902500000000         3.480112820691603E-010
   5.82207500000000         3.685993280948725E-010
   5.93512500000000         3.896585171918802E-010
   6.04817500000000         4.111981226033208E-010
   6.16122500000000         4.332316271106245E-010
   6.27427500000000         4.557761683216014E-010
   6.38732500000000         4.788518963638612E-010
   6.50037500000000         5.024812569989157E-010
   6.61342500000000         5.266882389018253E-010
   6.72647500000000         5.514976560763674E-010
   6.83952500000000         5.769344378554808E-010
   6.95257500000000         6.030230190769359E-010
   7.06562500000000         6.297868462782408E-010
   7.17867500000000         6.572479924775005E-010
   7.29172500000000         6.854269332484198E-010
   7.40477500000000         7.143425021324674E-010
   7.51782500000000         7.440119917423669E-010
   7.63087500000000         7.744514071846610E-010
   7.74392500000000         8.056758877944206E-010
   7.85697500000000         8.377002327985279E-010
   7.97002500000000         8.705395105054843E-010
   8.08307500000000         9.042097826082086E-010
   8.19612500000000         9.387287950517638E-010
   8.30917500000000         9.741167146045439E-010
   8.42222500000000         1.010396786795244E-009
   8.53527500000000         1.047595951593778E-009
   8.64832500000000         1.085745298620873E-009
   8.76137500000000         1.124880438603926E-009
   8.87442500000000         1.165041684296725E-009
   8.98747500000000         1.206274084257098E-009
   9.10052500000000         1.248627264358413E-009
   9.21357500000000         1.292155113569542E-009
   9.32662500000000         1.336915302986939E-009
   9.43967500000000         1.382968656845483E-009
   9.55272500000000         1.430378392834687E-009
   9.66577500000000         1.479209275920897E-009
   9.77882500000000         1.529526712233881E-009
   9.89187500000000         1.581395766114337E-009
   10.0049250000000         1.634880272400773E-009
   10.1179750000000         1.690041882532247E-009
   10.2310250000000         1.746939229582914E-009
   10.3440750000000         1.805627161482424E-009
   10.4571250000000         1.866156102540797E-009
   10.5701750000000         1.928571524130760E-009
   10.6832250000000         1.992913549461206E-009
   10.7962750000000         2.059216744576891E-009
   10.9093250000000         2.127509978745889E-009
   11.0223750000000         2.197816471400818E-009
   11.1354250000000         2.270153919075359E-009
   11.2484750000000         2.344534757785873E-009
   11.3615250000000         2.420966496997869E-009
   11.4745750000000         2.499452117216742E-009
   11.5876250000000         2.579990521704583E-009
   11.7006750000000         2.662577033455129E-009
   11.8137250000000         2.747203862488408E-009
   11.9267750000000         2.833860632946202E-009
   12.0398250000000         2.922534834047209E-009
   12.1528750000000         3.013212338998225E-009
   12.2659250000000         3.105877812621488E-009
   12.3789750000000         3.200515189351246E-009
   12.4920250000000         3.297108073650045E-009
   12.6050750000000         3.395640195366511E-009
   12.7181250000000         3.496095823583229E-009
   12.8311750000000         3.598460210287446E-009
   12.9442250000000         3.702720055616289E-009
   13.0572750000000         3.808864002436858E-009
   13.1703250000000         3.916883151544865E-009
   13.2833750000000         4.026771607479026E-009
   13.3964250000000         4.138527051808964E-009
   13.5094750000000         4.252151326464840E-009
   13.6225250000000         4.367651027925211E-009
   13.7355750000000         4.485038076592024E-009
   13.8486250000000         4.604330259382066E-009
   13.9616750000000         4.725551706047544E-009
   14.0747250000000         4.848733267678324E-009
   14.1877750000000         4.973912808096306E-009
   14.3008250000000         5.101135382079073E-009
   14.4138750000000         5.230453192823301E-009
   14.5269250000000         5.361925454201135E-009
   14.6399750000000         5.495618021243569E-009
   14.7530250000000         5.631602864689124E-009
   14.8660750000000         5.769957360464409E-009
   14.9791250000000         5.910763428667581E-009
   15.0921750000000         6.054106452663305E-009
   15.2052250000000         6.200074163473529E-009
   15.3182750000000         6.348755355764143E-009
   15.4313250000000         6.500238608419761E-009
   15.5443750000000         6.654610937001106E-009
   15.6574250000000         6.811956525851328E-009
   15.7704750000000         6.972355489360178E-009
   15.8835250000000         7.135882821280350E-009
   15.9965750000000         7.302607403404313E-009
   16.1096250000000         7.472591311103100E-009
   16.2226750000000         7.645889242450628E-009
   16.3357250000000         7.822548238147422E-009
   16.4487750000000         8.002607643133429E-009
   16.5618250000000         8.186099319055245E-009
   16.6748750000000         8.373048052291717E-009
   16.7879250000000         8.563472207168068E-009
   16.9009750000000         8.757384542158627E-009
   17.0140250000000         8.954793187088437E-009
   17.1270750000000         9.155702720233103E-009
   17.2401250000000         9.360115292130183E-009
   17.3531750000000         9.568031775823916E-009
   17.4662250000000         9.779452849848559E-009
   17.5792750000000         9.994380027766530E-009
   17.6923250000000         1.021281653568333E-008
   17.8053750000000         1.043476805281421E-008
   17.9184250000000         1.066024327307002E-008
   18.0314750000000         1.088925426443692E-008
   18.1445250000000         1.112181662369474E-008
   18.2575750000000         1.135794947187046E-008
   18.3706250000000         1.159767520832418E-008
   18.4836750000000         1.184101917894633E-008
   18.5967250000000         1.208800916688326E-008
   18.7097750000000         1.233867483240603E-008
   18.8228250000000         1.259304709995230E-008
   18.9358750000000         1.285115753589246E-008
   19.0489250000000         1.311303776282877E-008
   19.1619750000000         1.337871897173646E-008
   19.2750250000000         1.364823149417997E-008
   19.3880750000000         1.392160458784732E-008
   19.5011250000000         1.419886630796098E-008
   19.6141750000000         1.448004358617411E-008
   19.7272250000000         1.476516244850164E-008
   19.8402750000000         1.505424840714224E-008
   19.9533250000000         1.534732695630813E-008
   20.0663750000000         1.564442422205228E-008
   20.1794250000000         1.594556764152066E-008
   20.2924750000000         1.625078672382818E-008
   20.4055250000000         1.656011376100517E-008
   20.5185750000000         1.687358451946793E-008
   20.6316250000000         1.719123887529021E-008
   20.7446750000000         1.751312128325467E-008
   20.8577250000000         1.783928114366346E-008
   20.9707750000000         1.816977298174880E-008
   21.0838250000000         1.850465644677904E-008
   21.1968750000000         1.884399615113670E-008
   21.3099250000000         1.918786130519263E-008
   21.4229750000000         1.953632520201917E-008
   21.5360250000000         1.988946457101705E-008
   21.6490750000000         2.024735880940179E-008
   21.7621250000000         2.061008916101199E-008
   21.8751750000000         2.097773784722090E-008
   21.9882250000000         2.135038719847178E-008
   22.1012750000000         2.172811885451481E-008
   22.2143250000000         2.211101303249246E-008
   22.3273750000000         2.249914791957626E-008
   22.4404250000000         2.289259921670238E-008
   22.5534750000000         2.329143983724358E-008
   22.6665250000000         2.369573978710081E-008
   22.7795750000000         2.410556620768524E-008
   22.8926250000000         2.452098362691897E-008
   23.0056750000000         2.494205432186303E-008
   23.1187250000000         2.536883884183303E-008
   23.2317750000000         2.580139662780658E-008
   23.3448250000000         2.623978671677498E-008
   23.4578750000000         2.668406845756049E-008
   23.5709250000000         2.713430226116150E-008
   23.6839750000000         2.759055028521958E-008
   23.7970250000000         2.805287707457779E-008
   23.9100750000000         2.852135009256878E-008
   24.0231250000000         2.899604012241635E-008
   24.1361750000000         2.947702156434712E-008
   24.2492250000000         2.996437254680064E-008
   24.3622750000000         3.045817492850127E-008
   24.4753250000000         3.095851412214648E-008
   24.5883750000000         3.146547881422332E-008
   24.7014250000000         3.197916054861054E-008
   24.8144750000000         3.249965325492371E-008
   24.9275250000000         3.302705267404991E-008
   25.0405750000000         3.356145577542453E-008
   25.1536250000000         3.410296012779952E-008
   25.2666750000000         3.465166332896771E-008
   25.3797250000000         3.520766245679517E-008
   25.4927750000000         3.577105358381275E-008
   25.6058250000000         3.634193137992997E-008
   25.7188750000000         3.692038880823883E-008
   25.8319250000000         3.750651691747616E-008
   25.9449750000000         3.810040474585249E-008
   26.0580250000000         3.870213932144673E-008
   26.1710750000000         3.931180575646053E-008
   26.2841250000000         3.992948743642065E-008
   26.3971750000000         4.055526628037052E-008
   26.5102250000000         4.118922304346372E-008
   26.6232750000000         4.183143767987369E-008
   26.7363250000000         4.248198973099617E-008
   26.8493750000000         4.314095871068397E-008
   26.9624250000000         4.380842450216776E-008
   27.0754750000000         4.448446770105266E-008
   27.1885250000000         4.516916997121933E-008
   27.3015750000000         4.586261432812010E-008
   27.4146250000000         4.656488538630573E-008
   27.5276750000000         4.727606954392217E-008
   27.6407250000000         4.799625510095266E-008
   27.7537750000000         4.872553231512936E-008
   27.8668250000000         4.946399337469097E-008
   27.9798750000000         5.021173232343943E-008
   28.0929250000000         5.096884487714825E-008
   28.2059750000000         5.173542818449980E-008
   28.3190250000000         5.251158050592696E-008
   28.4320750000000         5.329740081245172E-008
   28.5451250000000         5.409298831636656E-008
   28.6581750000000         5.489844195384673E-008
   28.7712250000000         5.571385978737625E-008
   28.8842750000000         5.653933837950883E-008
   28.9973250000000         5.737497214019217E-008
   29.1103750000000         5.822085267549986E-008
   29.2234250000000         5.907706814670382E-008
   29.3364750000000         5.994370270072658E-008
   29.4495250000000         6.082083596665882E-008
   29.5625750000000         6.170854266812044E-008
   29.6756250000000         6.260689240130669E-008
   29.7886750000000         6.351594958681691E-008
   29.9017250000000         6.443577364755579E-008
   30.0147750000000         6.536641943189053E-008
   30.1278250000000         6.630793789041196E-008
   30.2408750000000         6.726037700294699E-008
   30.3539250000000         6.822378301564357E-008
   30.4669750000000         6.919820189078058E-008
   30.5800250000000         7.018368099246725E-008
   30.6930750000000         7.118027092976024E-008
   30.8061250000000         7.218802752437290E-008
   30.9191750000000         7.320701380520177E-008
   31.0322250000000         7.423730194900710E-008
   31.1452750000000         7.527897507380456E-008
   31.2583250000000         7.633212878605526E-008
   31.3713750000000         7.739687236790731E-008
   31.4844250000000         7.847332949090981E-008
   31.5974750000000         7.956163838901594E-008
   31.7105250000000         8.066195140919965E-008
   31.8235750000000         8.177443385290967E-008
   31.9366250000000         8.289926209832841E-008
   32.0496750000000         8.403662098787406E-008
   32.1627250000000         8.518670050005530E-008
   32.2757750000000         8.634969178677968E-008
   32.3888250000000         8.752578265174769E-008
   32.5018750000000         8.871515261442455E-008
   32.6149250000000         8.991796771753200E-008
   32.7279750000000         9.113437528122694E-008
   32.8410250000000         9.236449884438520E-008
   32.9540750000000         9.360843348890867E-008
   33.0671250000000         9.486624180943285E-008
   33.1801750000000         9.613795081830639E-008
   33.2932250000000         9.742354996966970E-008
   33.4062750000000         9.872299050486777E-008
   33.5193250000000         1.000361863611640E-007
   33.6323750000000         1.013630166909316E-007
   33.7454250000000         1.027033301711266E-007
   33.8584750000000         1.040569510129000E-007
   33.9715250000000         1.054236866831731E-007
   34.0845750000000         1.068033372041743E-007
   34.1976250000000         1.081957057670990E-007
   34.3106750000000         1.096006104703100E-007
   34.4237250000000         1.110178967294310E-007
   34.5367750000000         1.124474500146836E-007
   34.6498250000000         1.138892084007325E-007
   34.7628750000000         1.153431744148408E-007
   34.8759250000000         1.168094256853735E-007
   34.9889750000000         1.182881237465244E-007
   35.1020250000000         1.197795205609887E-007
   35.2150750000000         1.212839622256336E-007
   35.3281250000000         1.228018893797313E-007
   35.4411750000000         1.243338339769686E-007
   35.5542250000000         1.258804121636543E-007
   35.6672750000000         1.274423130879465E-007
   35.7803250000000         1.290202836812294E-007
   35.8933750000000         1.306151094691004E-007
   36.0064250000000         1.322275918243635E-007
   36.1194750000000         1.338585220425145E-007
   36.2325250000000         1.355086529515366E-007
   36.3455750000000         1.371786688173127E-007
   36.4586250000000         1.388691545396772E-007
   36.5716750000000         1.405805651808139E-007
   36.6847250000000         1.423131970735859E-007
   36.7977750000000         1.440671617760409E-007
   36.9108250000000         1.458423641325434E-007
   37.0238750000000         1.476384858021740E-007
   37.1369250000000         1.494549754641520E-007
   37.2499750000000         1.512910468583021E-007
   37.3630250000000         1.531456856204850E-007
   37.4760750000000         1.550176657157407E-007
   37.5891250000000         1.569055758774870E-007
   37.7021750000000         1.588078563229383E-007
   37.8152250000000         1.607228454514698E-007
   37.9282750000000         1.626488360124823E-007
   38.0413250000000         1.645841396728184E-007
   38.1543750000000         1.665271585033989E-007
   38.2674250000000         1.684764615681043E-007
   38.3804750000000         1.704308642009348E-007
   38.4935250000000         1.723895073701717E-007
   38.6065750000000         1.743519340235747E-007
   38.7196250000000         1.763181592346525E-007
   38.8326750000000         1.782887307005235E-007
   38.9457250000000         1.802647761192662E-007
   39.0587750000000         1.822480341503129E-007
   39.1718250000000         1.842408657875921E-007
   39.2848750000000         1.862462434329974E-007
   39.3979250000000         1.882677154609925E-007
   39.5109750000000         1.903093447834076E-007
   39.6240250000000         1.923756206781928E-007
   39.7370750000000         1.944713442011297E-007
   39.8501250000000         1.966014885249282E-007
   39.9631750000000         1.987710366064939E-007
   40.0762250000000         2.009847998759468E-007
   40.1892750000000         2.032472227195450E-007
   40.3023250000000         2.055621786356066E-007
   40.4153750000000         2.079327649887234E-007
   40.5284250000000         2.103611041300794E-007
   40.6414750000000         2.128481592127976E-007
   40.7545250000000         2.153935735259241E-007
   40.8675750000000         2.179955421253970E-007
   40.9806250000000         2.206507243244688E-007
   41.0936750000000         2.233542049638730E-007
   41.2067250000000         2.260995112623260E-007
   41.3197750000000         2.288786908044543E-007
   41.4328250000000         2.316824542017566E-007
   41.5458750000000         2.345003839889027E-007
   41.6589250000000         2.373212088480801E-007
   41.7719750000000         2.401331395586706E-007
   41.8850250000000         2.429242603204561E-007
   41.9980750000000         2.456829662632194E-007
   42.1111250000000         2.483984351352836E-007
   42.2241750000000         2.510611186683245E-007
   42.3372250000000         2.536632367317211E-007
   42.4502750000000         2.561992556874146E-007
   42.5633250000000         2.586663309724011E-007
   42.6763750000000         2.610646933447244E-007
   42.7894250000000         2.633979583920183E-007
   42.9024750000000         2.656733398137677E-007
   43.0155250000000         2.679017487710058E-007
   43.1285750000000         2.700977644021401E-007
   43.2416250000000         2.722794639842647E-007
   43.3546750000000         2.744681056503576E-007
   43.4677250000000         2.766876615284686E-007
   43.5807750000000         2.789642047444181E-007
   43.6938250000000         2.813251596987049E-007
   43.8068750000000         2.837984311082499E-007
   43.9199250000000         2.864114334099406E-007
   44.0329750000000         2.891900478926010E-007
   44.1460250000000         2.921575401978564E-007
   44.2590750000000         2.953334751984099E-007
   44.3721250000000         2.987326697256794E-007
   44.4851750000000         3.023642256944951E-007
   44.5982250000000         3.062306868143435E-007
   44.7112750000000         3.103273612161508E-007
   44.8243250000000         3.146418495404944E-007
   44.9373750000000         3.191538136995747E-007
   45.0504250000000         3.238350154621269E-007
   45.1634750000000         3.286496461693935E-007
   45.2765250000000         3.335549598047131E-007
   45.3895750000000         3.385022112239386E-007
   45.5026250000000         3.434378901856973E-007
   45.6156750000000         3.483052298651888E-007
   45.7287250000000         3.530459568471942E-007
   45.8417750000000         3.576022378172454E-007
   45.9548250000000         3.619187676356464E-007
   46.0678750000000         3.659449337422970E-007
   46.1809250000000         3.696369843481273E-007
   46.2939750000000         3.729601220831023E-007
   46.4070250000000         3.758904417325884E-007
   46.5200750000000         3.784166304772871E-007
   46.6331250000000         3.805413517331447E-007
   46.7461750000000         3.822822395610335E-007
   46.8592250000000         3.836724395875181E-007
   46.9722750000000         3.847606443657737E-007
   47.0853250000000         3.856105857509915E-007
   47.1983750000000         3.862999639541070E-007
   47.3114250000000         3.869188118471570E-007
   47.4244750000000         3.875673133209276E-007
   47.5375250000000         3.883531153836819E-007
   47.6505750000000         3.893881943693209E-007
   47.7636250000000         3.907853565611189E-007
   47.8766750000000         3.926544717000126E-007
   47.9897250000000         3.950985536042938E-007
   48.1027750000000         3.982098147278042E-007
   48.2158250000000         4.020658303374669E-007
   48.3288750000000         4.067259523736064E-007
   48.4419250000000         4.122281128039668E-007
   48.5549750000000         4.185861509257820E-007
   48.6680250000000         4.257877887198908E-007
   48.7810750000000         4.337933628623084E-007
   48.8941250000000         4.425354019705410E-007
   49.0071750000000         4.519191131421066E-007
   49.1202250000000         4.618238140586487E-007
   49.2332750000000         4.721053159864999E-007
   49.3463250000000         4.825992306487088E-007
   49.4593750000000         4.931251404426268E-007
   49.5724250000000         5.034915386129845E-007
   49.6854750000000         5.135014147520481E-007
   49.7985250000000         5.229583322771995E-007
   49.9115750000000         5.316728199430124E-007
   50.0246250000000         5.394688797504455E-007
   50.1376750000000         5.461903998374662E-007
   50.2507250000000         5.517072536263349E-007
   50.3637750000000         5.559208667141269E-007
   50.4768250000000         5.587690403989477E-007
   50.5898750000000         5.602298358758984E-007
   50.7029250000000         5.603243457217196E-007
   50.8159750000000         5.591182085880969E-007
   50.9290250000000         5.567217588010639E-007
   51.0420750000000         5.532887432972376E-007
   51.1551250000000         5.490135833069450E-007
   51.2681750000000         5.441272057569381E-007
   51.3812250000000         5.388915179526328E-007
   51.4942750000000         5.335926474472729E-007
   51.6073250000000         5.285331148819265E-007
   51.7203750000000         5.240231500010692E-007
   51.8334250000000         5.203713976837237E-007
   51.9464750000000         5.178752909853091E-007
   52.0595250000000         5.168113899531079E-007
   52.1725750000000         5.174259977062244E-007
   52.2856250000000         5.199263680180834E-007
   52.3986750000000         5.244728110094292E-007
   52.5117250000000         5.311719854531768E-007
   52.6247750000000         5.400716377047144E-007
   52.7378250000000         5.511570092447039E-007
   52.8508750000000         5.643490879672284E-007
   52.9639250000000         5.795048239370559E-007
   53.0769750000000         5.964193701543797E-007
   53.1900250000000         6.148303444053609E-007
   53.3030750000000         6.344240418249614E-007
   53.4161250000000         6.548434612205151E-007
   53.5291750000000         6.756979440729710E-007
   53.6422250000000         6.965741652770603E-007
   53.7552750000000         7.170481614892412E-007
   53.8683250000000         7.366980384494587E-007
   53.9813750000000         7.551169643729137E-007
   54.0944250000000         7.719260342122821E-007
   54.2074750000000         7.867865803064388E-007
   54.3205250000000         7.994115094743493E-007
   54.4335750000000         8.095752652378598E-007
   54.5466250000000         8.171220466412038E-007
   54.6596750000000         8.219719612306916E-007
   54.7727250000000         8.241248484158343E-007
   54.8857750000000         8.236615789819456E-007
   54.9988250000000         8.207427151034713E-007
   55.1118750000000         8.156045006365308E-007
   55.2249250000000         8.085522410624665E-007
   55.3379750000000         7.999512235103566E-007
   55.4510250000000         7.902154167411768E-007
   55.5640750000000         7.797942759226200E-007
   55.6771250000000         7.691580542539509E-007
   55.7901750000000         7.587820902613274E-007
   55.9032250000000         7.491305932348613E-007
   56.0162750000000         7.406404873350178E-007
   56.1293250000000         7.337058952287250E-007
   56.2423750000000         7.286638437945483E-007
   56.3554250000000         7.257817556824570E-007
   56.4684750000000         7.252472517896758E-007
   56.5815250000000         7.271607306207193E-007
   56.6945750000000         7.315311124631275E-007
   56.8076250000000         7.382750407672732E-007
   56.9206750000000         7.472197222430041E-007
   57.0337250000000         7.581094640277201E-007
   57.1467750000000         7.706158342215317E-007
   57.2598250000000         7.843512350683803E-007
   57.3728750000000         7.988855403163682E-007
   57.4859250000000         8.137653146054225E-007
   57.5989750000000         8.285350076066100E-007
   57.7120250000000         8.427594040964053E-007
   57.8250750000000         8.560465176054861E-007
   57.9381250000000         8.680700441743107E-007
   58.0511750000000         8.785904479533581E-007
   58.1642250000000         8.874737352987656E-007
   58.2772750000000         8.947069909554441E-007
   58.3903250000000         9.004098007998162E-007
   58.5033750000000         9.048407713175229E-007
   58.6164250000000         9.083984755846808E-007
   58.7294750000000         9.116163081844713E-007
   58.8425250000000         9.151509141265360E-007
   58.9555750000000         9.197640657885866E-007
   59.0686250000000         9.262980920666808E-007
   59.1816750000000         9.356452094382058E-007
   59.2947250000000         9.487113582139417E-007
   59.4077750000000         9.663754012376679E-007
   59.5208250000000         9.894447882098851E-007
   59.6338750000000         1.018609017672367E-006
   59.7469250000000         1.054392431362385E-006
   59.8599750000000         1.097108043553469E-006
   59.9730250000000         1.146814232075093E-006
   60.0860750000000         1.203276190531547E-006
   60.1991250000000         1.265934055719338E-006
   60.3121750000000         1.333879575043092E-006
   60.4252250000000         1.405843061841344E-006
   60.5382750000000         1.480192199860643E-006
   60.6513250000000         1.554944001939104E-006
   60.7643750000000         1.627790904220491E-006
   60.8774250000000         1.696141590943236E-006
   60.9904750000000         1.757176702883782E-006
   61.1035250000000         1.807919094553392E-006
   61.2165750000000         1.845317783047429E-006
   61.3296250000000         1.866344188993285E-006
   61.4426750000000         1.868098723160487E-006
   61.5557250000000         1.847925238354261E-006
   61.6687750000000         1.803530363728274E-006
   61.7818250000000         1.733104286519628E-006
   61.8948750000000         1.635439163734627E-006
   62.0079250000000         1.510041051807394E-006
   62.1209750000000         1.357231053121179E-006
   62.2340250000000         1.178231310038732E-006
   62.3470750000000         9.752315423654471E-007
   62.4601250000000         7.514320330069630E-007
   62.5731750000000         5.110593247352224E-007
   62.6862250000000         2.593514003945245E-007
   62.7992750000000         2.509776401245299E-009
   62.9123250000000        -2.523832625759917E-007
   63.0253750000000        -4.974831348246797E-007
   63.1384250000000        -7.243369511611233E-007
   63.2514750000000        -9.240717152572644E-007
   63.3645250000000        -1.087614248600543E-006
   63.4775750000000        -1.205939149502337E-006
   63.5906250000000        -1.270339900450902E-006
   63.7036750000000        -1.272717090682517E-006
   63.8167250000000        -1.205876660582447E-006
   63.9297750000000        -1.063830141947908E-006
   64.0428250000000        -8.420881027204682E-007
   64.1558750000000        -5.379374439075771E-007
   64.2689250000000        -1.506928742490877E-007
   64.3819750000000         3.180871661914480E-007
   64.4950250000000         8.644296253891561E-007
   64.6080750000000         1.481829949952885E-006
   64.7211250000000         2.161197276671214E-006
   64.8341750000000         2.890868623637500E-006
   64.9472250000000         3.656697527127590E-006
   65.0602750000000         4.442220818353892E-006
   65.1733250000000         5.228905235108357E-006
   65.2863750000000         5.996473358995494E-006
   65.3994250000000         6.723306011363222E-006
   65.5124750000000         7.386915790293313E-006