 -0.847875000000000        -2.026894295313394E-025
 -0.734825000000000        -1.602664934679654E-020
 -0.621775000000000        -1.246957134466676E-019
 -0.508725000000000        -6.502365413878272E-019
 -0.395675000000000        -2.703709237745747E-018
 -0.282625000000000        -9.482247597809761E-018
 -0.169575000000000        -2.871130560081714E-017
 -5.652500000000005E-002   -7.645195263582671E-017
  5.652499999999994E-002   -1.824654069035193E-016
  0.169575000000000        -3.941004250122183E-016
  0.282625000000000        -7.850670567840968E-016
  0.395675000000000        -1.455817566601653E-015
  0.508725000000000        -2.537378937940672E-015
  0.621775000000000        -4.194888350755393E-015
  0.734825000000000        -6.620325102077529E-015
  0.847875000000000        -1.005294488805985E-014
  0.960925000000000        -1.469902067770645E-014
   1.07397500000000        -2.082848977256615E-014
   1.18702500000000        -2.870057552499632E-014
   1.30007500000000        -3.857329507557048E-014
   1.41312500000000        -5.069351958205401E-014
   1.52617500000000        -6.528362126246731E-014
   1.63922500000000        -8.249968166251563E-014
   1.75227500000000        -1.025278155494469E-013
   1.86532500000000        -1.254316683357304E-013
   1.97837500000000        -1.513111998444636E-013
   2.09142500000000        -1.800915600593441E-013
   2.20447500000000        -2.117456454769254E-013
   2.31752500000000        -2.460159496099865E-013
   2.43057500000000        -2.828092856920152E-013
   2.54362500000000        -3.216631232095889E-013
   2.65667500000000        -3.623680561701490E-013
   2.76972500000000        -4.044032262401459E-013
   2.88277500000000        -4.473969926828930E-013
   2.99582500000000        -4.906600239380320E-013
   3.10887500000000        -5.339480273438610E-013
   3.22192500000000        -5.764264016443561E-013
   3.33497500000000        -6.177878465521197E-013
   3.44802500000000        -6.573813199882430E-013
   3.56107500000000        -6.947150463454409E-013
   3.67412500000000        -7.293594141093457E-013
   3.78717500000000        -7.609866666074609E-013
   3.90022500000000        -7.892032399882219E-013
   4.01327500000000        -8.138580497741616E-013
   4.12632500000000        -8.346863037358611E-013
   4.23937500000000        -8.516499497706473E-013
   4.35242500000000        -8.648971508174529E-013
   4.46547500000000        -8.743748835993740E-013
   4.57852500000000        -8.802357320178639E-013
   4.69157500000000        -8.827735997492410E-013
   4.80462500000000        -8.821887419687040E-013
   4.91767500000000        -8.787936884035369E-013
   5.03072500000000        -8.729400653994225E-013
   5.14377500000000        -8.651003630446869E-013
   5.25682500000000        -8.554126773850850E-013
   5.36987500000000        -8.440996833006676E-013
   5.48292500000000        -8.317799527042589E-013
   5.59597500000000        -8.184788955397001E-013
   5.70902500000000        -8.046071950749370E-013
   5.82207500000000        -7.901219652188614E-013
   5.93512500000000        -7.752138115270264E-013
   6.04817500000000        -7.600643278681577E-013
   6.16122500000000        -7.448274275258203E-013
   6.27427500000000        -7.293756179252533E-013
   6.38732500000000        -7.140331109910526E-013
   6.50037500000000        -6.987312093199535E-013
   6.61342500000000        -6.836808651595528E-013
   6.72647500000000        -6.688973299153174E-013
   6.83952500000000        -6.548466205735574E-013
   6.95257500000000        -6.412567438275874E-013
   7.06562500000000        -6.288476746411463E-013
   7.17867500000000        -6.178530494659861E-013
   7.29172500000000        -6.085167439562811E-013
   7.40477500000000        -6.013538136437445E-013
   7.51782500000000        -5.967140299669845E-013
   7.63087500000000        -5.949978894983375E-013
   7.74392500000000        -5.965542656803377E-013
   7.85697500000000        -6.018909153881683E-013
   7.97002500000000        -6.113238863275534E-013
   8.08307500000000        -6.249250067166480E-013
   8.19612500000000        -6.428320655019168E-013
   8.30917500000000        -6.650679663718792E-013
   8.42222500000000        -6.914818140006180E-013
   8.53527500000000        -7.218795430811145E-013
   8.64832500000000        -7.557918426653999E-013
   8.76137500000000        -7.925280325945827E-013
   8.87442500000000        -8.315242850792839E-013
   8.98747500000000        -8.720381345829498E-013
   9.10052500000000        -9.130020660906552E-013
   9.21357500000000        -9.536274268152826E-013
   9.32662500000000        -9.929116283098649E-013
   9.43967500000000        -1.029873190220481E-012
   9.55272500000000        -1.063592038113533E-012
   9.66577500000000        -1.093104125525829E-012
   9.77882500000000        -1.117757536070850E-012
   9.89187500000000        -1.137077790881570E-012
   10.0049250000000        -1.150243035546551E-012
   10.1179750000000        -1.157177153492264E-012
   10.2310250000000        -1.157829185555978E-012
   10.3440750000000        -1.152173906980440E-012
   10.4571250000000        -1.140610277700879E-012
   10.5701750000000        -1.123527878616095E-012
   10.6832250000000        -1.101448933762709E-012
   10.7962750000000        -1.075158774843333E-012
   10.9093250000000        -1.045535638336163E-012
   11.0223750000000        -1.013443047480866E-012
   11.1354250000000        -9.797634674118086E-013
   11.2484750000000        -9.453827190829409E-013
   11.3615250000000        -9.111982639488034E-013
   11.4745750000000        -8.780480554799321E-013
   11.5876250000000        -8.465241249418051E-013
   11.7006750000000        -8.172970702855633E-013
   11.8137250000000        -7.907522693314371E-013
   11.9267750000000        -7.671320069022039E-013
   12.0398250000000        -7.466969282450312E-013
   12.1528750000000        -7.293419017871863E-013
   12.2659250000000        -7.150485866965957E-013
   12.3789750000000        -7.036862948987273E-013
   12.4920250000000        -6.949438008862062E-013
   12.6050750000000        -6.885534898523870E-013
   12.7181250000000        -6.841400086075888E-013
   12.8311750000000        -6.815852277201555E-013
   12.9442250000000        -6.803728290903720E-013
   13.0572750000000        -6.805074780021582E-013
   13.1703250000000        -6.817965813312597E-013
   13.2833750000000        -6.841900583777045E-013
   13.3964250000000        -6.877221966983467E-013
   13.5094750000000        -6.925905266404239E-013
   13.6225250000000        -6.989410196460241E-013
   13.7355750000000        -7.069795352817308E-013
   13.8486250000000        -7.170636258091822E-013
   13.9616750000000        -7.292436071561550E-013
   14.0747250000000        -7.441724028993041E-013
   14.1877750000000        -7.617556136632092E-013
   14.3008250000000        -7.823578069287944E-013
   14.4138750000000        -8.058803161230038E-013
   14.5269250000000        -8.321499637784641E-013
   14.6399750000000        -8.611850706715160E-013
   14.7530250000000        -8.925731085585525E-013
   14.8660750000000        -9.258623782808623E-013
   14.9791250000000        -9.604359898713430E-013
   15.0921750000000        -9.957317337121673E-013
   15.2052250000000        -1.030839733296443E-012
   15.3182750000000        -1.064957093163734E-012
   15.4313250000000        -1.097431533218215E-012
   15.5443750000000        -1.127506088373184E-012
   15.6574250000000        -1.154215081959711E-012
   15.7704750000000        -1.177293630511946E-012
   15.8835250000000        -1.196001651212212E-012
   15.9965750000000        -1.210051687999127E-012
   16.1096250000000        -1.219428547644455E-012
   16.2226750000000        -1.224189856267015E-012
   16.3357250000000        -1.224529485737560E-012
   16.4487750000000        -1.220947358892222E-012
   16.5618250000000        -1.214032970040409E-012
   16.6748750000000        -1.204696137459793E-012
   16.7879250000000        -1.193705188015373E-012
   16.9009750000000        -1.181999512171296E-012
   17.0140250000000        -1.170796400114937E-012
   17.1270750000000        -1.160907867869662E-012
   17.2401250000000        -1.153303058580337E-012
   17.3531750000000        -1.149147614738653E-012
   17.4662250000000        -1.148792727363099E-012
   17.5792750000000        -1.152874034720767E-012
   17.6923250000000        -1.161802549536993E-012
   17.8053750000000        -1.175641853170027E-012
   17.9184250000000        -1.194321844760321E-012
   18.0314750000000        -1.217581976421329E-012
   18.1445250000000        -1.244671567580364E-012
   18.2575750000000        -1.274896413015433E-012
   18.3706250000000        -1.307482692994356E-012
   18.4836750000000        -1.341390777499915E-012
   18.5967250000000        -1.375461856949601E-012
   18.7097750000000        -1.408510706122389E-012
   18.8228250000000        -1.439606862271516E-012
   18.9358750000000        -1.467492660180861E-012
   19.0489250000000        -1.491446617781324E-012
   19.1619750000000        -1.510428030567580E-012
   19.2750250000000        -1.524187953889493E-012
   19.3880750000000        -1.532145840225909E-012
   19.5011250000000        -1.534199319218845E-012
   19.6141750000000        -1.530413241627394E-012
   19.7272250000000        -1.521193384939978E-012
   19.8402750000000        -1.507055064900344E-012
   19.9533250000000        -1.488832987457644E-012
   20.0663750000000        -1.467323868544979E-012
   20.1794250000000        -1.443770668644780E-012
   20.2924750000000        -1.419124684105742E-012
   20.4055250000000        -1.394900157309687E-012
   20.5185750000000        -1.372025102761955E-012
   20.6316250000000        -1.351907863161287E-012
   20.7446750000000        -1.335664335948262E-012
   20.8577250000000        -1.324060268001375E-012
   20.9707750000000        -1.318216353692673E-012
   21.0838250000000        -1.318752891459842E-012
   21.1968750000000        -1.326087160558821E-012
   21.3099250000000        -1.340600930096422E-012
   21.4229750000000        -1.362379020856303E-012
   21.5360250000000        -1.391212080629150E-012
   21.6490750000000        -1.426884338114779E-012
   21.7621250000000        -1.468864226103330E-012
   21.8751750000000        -1.516689245354878E-012
   21.9882250000000        -1.569375536389616E-012
   22.1012750000000        -1.626313338268026E-012
   22.2143250000000        -1.686548694723335E-012
   22.3273750000000        -1.749071731513246E-012
   22.4404250000000        -1.812981211372801E-012
   22.5534750000000        -1.877379247679234E-012
   22.6665250000000        -1.941488439480362E-012
   22.7795750000000        -2.004446157270950E-012
   22.8926250000000        -2.065596279452387E-012
   23.0056750000000        -2.124354820760767E-012
   23.1187250000000        -2.180221278506142E-012
   23.2317750000000        -2.232697951760662E-012
   23.3448250000000        -2.281703061327700E-012
   23.4578750000000        -2.326949130564554E-012
   23.5709250000000        -2.368351110653338E-012
   23.6839750000000        -2.405872893851649E-012
   23.7970250000000        -2.439593079114096E-012
   23.9100750000000        -2.469522307243453E-012
   24.0231250000000        -2.495808767376596E-012
   24.1361750000000        -2.518802442776354E-012
   24.2492250000000        -2.538307438596033E-012
   24.3622750000000        -2.554740672340961E-012
   24.4753250000000        -2.567929250268645E-012
   24.5883750000000        -2.578205833720256E-012
   24.7014250000000        -2.585641745956264E-012
   24.8144750000000        -2.590157947639709E-012
   24.9275250000000        -2.591837404836887E-012
   25.0405750000000        -2.590756205074454E-012
   25.1536250000000        -2.586861725147586E-012
   25.2666750000000        -2.580207255330059E-012
   25.3797250000000        -2.570867631381091E-012
   25.4927750000000        -2.558695407209079E-012
   25.6058250000000        -2.544088980151494E-012
   25.7188750000000        -2.527110155249757E-012
   25.8319250000000        -2.507918181283917E-012
   25.9449750000000        -2.486735825908426E-012
   26.0580250000000        -2.464087824402796E-012
   26.1710750000000        -2.440389128208565E-012
   26.2841250000000        -2.416227597380595E-012
   26.3971750000000        -2.391976071142030E-012
   26.5102250000000        -2.368643833304235E-012
   26.6232750000000        -2.346654946033446E-012
   26.7363250000000        -2.326937227691620E-012
   26.8493750000000        -2.310323084867227E-012
   26.9624250000000        -2.297385464196717E-012
   27.0754750000000        -2.289128977075575E-012
   27.1885250000000        -2.285947456288265E-012
   27.3015750000000        -2.288819004919005E-012
   27.4146250000000        -2.298064838927011E-012
   27.5276750000000        -2.314078568648279E-012
   27.6407250000000        -2.337165625948452E-012
   27.7537750000000        -2.367410631697222E-012
   27.8668250000000        -2.404805912948368E-012
   27.9798750000000        -2.449134685225737E-012
   28.0929250000000        -2.499939817804098E-012
   28.2059750000000        -2.556685467958494E-012
   28.3190250000000        -2.618466040186912E-012
   28.4320750000000        -2.684836540507938E-012
   28.5451250000000        -2.754362200455207E-012
   28.6581750000000        -2.826387963744912E-012
   28.7712250000000        -2.899518193933420E-012
   28.8842750000000        -2.972841196248379E-012
   28.9973250000000        -3.044771181837213E-012
   29.1103750000000        -3.114579658764415E-012
   29.2234250000000        -3.181051211296883E-012
   29.3364750000000        -3.243365112485092E-012
   29.4495250000000        -3.300526704512082E-012
   29.5625750000000        -3.351956614106015E-012
   29.6756250000000        -3.397029840882209E-012
   29.7886750000000        -3.435408937655730E-012
   29.9017250000000        -3.466976130403992E-012
   30.0147750000000        -3.491567627181730E-012
   30.1278250000000        -3.509292305774282E-012
   30.2408750000000        -3.520558606432329E-012
   30.3539250000000        -3.525675310037962E-012
   30.4669750000000        -3.525265118020786E-012
   30.5800250000000        -3.519838513588190E-012
   30.6930750000000        -3.509927168558702E-012
   30.8061250000000        -3.496223335492011E-012
   30.9191750000000        -3.479543697260651E-012
   31.0322250000000        -3.460453396824546E-012
   31.1452750000000        -3.439555170877758E-012
   31.2583250000000        -3.417348396863531E-012
   31.3713750000000        -3.394380989589335E-012
   31.4844250000000        -3.371054308399191E-012
   31.5974750000000        -3.347571964421295E-012
   31.7105250000000        -3.324326608920910E-012
   31.8235750000000        -3.301352613999783E-012
   31.9366250000000        -3.278868848760902E-012
   32.0496750000000        -3.256885383637674E-012
   32.1627250000000        -3.235485029232286E-012
   32.2757750000000        -3.214619324762692E-012
   32.3888250000000        -3.194323563350297E-012
   32.5018750000000        -3.174728056007078E-012
   32.6149250000000        -3.155875007552603E-012
   32.7279750000000        -3.137932867760751E-012
   32.8410250000000        -3.121067513736619E-012
   32.9540750000000        -3.105575359760767E-012
   33.0671250000000        -3.091667003521129E-012
   33.1801750000000        -3.079775716510554E-012
   33.2932250000000        -3.070416658746370E-012
   33.4062750000000        -3.063995480163987E-012
   33.5193250000000        -3.060801330058162E-012
   33.6323750000000        -3.061487233008302E-012
   33.7454250000000        -3.066384859167528E-012
   33.8584750000000        -3.076001222402978E-012
   33.9715250000000        -3.090473525482489E-012
   34.0845750000000        -3.110199492438572E-012
   34.1976250000000        -3.135354312441825E-012
   34.3106750000000        -3.165914346672183E-012
   34.4237250000000        -3.201670931565152E-012
   34.5367750000000        -3.242754880666495E-012
   34.6498250000000        -3.288613928793997E-012
   34.7628750000000        -3.338912995532075E-012
   34.8759250000000        -3.393279420941134E-012
   34.9889750000000        -3.450922301839507E-012
   35.1020250000000        -3.511305387086267E-012
   35.2150750000000        -3.573736849257273E-012
   35.3281250000000        -3.637448341639162E-012
   35.4411750000000        -3.701871538026346E-012
   35.5542250000000        -3.766334413090489E-012
   35.6672750000000        -3.830090441906670E-012
   35.7803250000000        -3.892711118193414E-012
   35.8933750000000        -3.953752505334965E-012
   36.0064250000000        -4.012947617468578E-012
   36.1194750000000        -4.069942913130494E-012
   36.2325250000000        -4.124747319256137E-012
   36.3455750000000        -4.177297765598963E-012
   36.4586250000000        -4.227766357660242E-012
   36.5716750000000        -4.276279867195939E-012
   36.6847250000000        -4.323058015351136E-012
   36.7977750000000        -4.368633281793014E-012
   36.9108250000000        -4.413173258687805E-012
   37.0238750000000        -4.457170529258148E-012
   37.1369250000000        -4.500838627084670E-012
   37.2499750000000        -4.544643728488370E-012
   37.3630250000000        -4.588711759372468E-012
   37.4760750000000        -4.633328686489351E-012
   37.5891250000000        -4.678449515367416E-012
   37.7021750000000        -4.724275992837672E-012
   37.8152250000000        -4.770467688149014E-012
   37.9282750000000        -4.816869092873239E-012
   38.0413250000000        -4.863240105151146E-012
   38.1543750000000        -4.909064359844701E-012
   38.2674250000000        -4.953927661196205E-012
   38.3804750000000        -4.997258030912988E-012
   38.4935250000000        -5.038627593105203E-012
   38.6065750000000        -5.077305788629454E-012
   38.7196250000000        -5.112942502982011E-012
   38.8326750000000        -5.144958970541417E-012
   38.9457250000000        -5.173039545003433E-012
   39.0587750000000        -5.196896368426899E-012
   39.1718250000000        -5.216365144808989E-012
   39.2848750000000        -5.231383964774081E-012
   39.3979250000000        -5.242139262440315E-012
   39.5109750000000        -5.248938725863380E-012
   39.6240250000000        -5.252112145656551E-012
   39.7370750000000        -5.252284730792537E-012
   39.8501250000000        -5.250069453685001E-012
   39.9631750000000        -5.246275559828667E-012
   40.0762250000000        -5.241700356193604E-012
   40.1892750000000        -5.237297306738001E-012
   40.3023250000000        -5.233866102805949E-012
   40.4153750000000        -5.232181869770421E-012
   40.5284250000000        -5.233226169624059E-012
   40.6414750000000        -5.237681994019395E-012
   40.7545250000000        -5.246087391837840E-012
   40.8675750000000        -5.258946851219396E-012
   40.9806250000000        -5.276589193862089E-012
   41.0936750000000        -5.299167883161202E-012
   41.2067250000000        -5.326646392636713E-012
   41.3197750000000        -5.358837618695351E-012
   41.4328250000000        -5.395394794109437E-012
   41.5458750000000        -5.435947173216385E-012
   41.6589250000000        -5.479884122578243E-012
   41.7719750000000        -5.526541622100494E-012
   41.8850250000000        -5.575227141258979E-012
   41.9980750000000        -5.625305384195338E-012
   42.1111250000000        -5.675831161818128E-012
   42.2241750000000        -5.726302007705594E-012
   42.3372250000000        -5.776077431186422E-012
   42.4502750000000        -5.824606148234753E-012
   42.5633250000000        -5.871598439803686E-012
   42.6763750000000        -5.916520703084114E-012
   42.7894250000000        -5.959398469443671E-012
   42.9024750000000        -6.000153378136760E-012
   43.0155250000000        -6.039037671214982E-012
   43.1285750000000        -6.075949807122810E-012
   43.2416250000000        -6.111288804960204E-012
   43.3546750000000        -6.145263037267567E-012
   43.4677250000000        -6.178344159766302E-012
   43.5807750000000        -6.210792631269375E-012
   43.6938250000000        -6.242833777856427E-012
   43.8068750000000        -6.274659131700224E-012
   43.9199250000000        -6.306350691869107E-012
   44.0329750000000        -6.338023135297568E-012
   44.1460250000000        -6.369453820380255E-012
   44.2590750000000        -6.400489223606557E-012
   44.3721250000000        -6.430425903456445E-012
   44.4851750000000        -6.459199014708170E-012
   44.5982250000000        -6.485890859002235E-012
   44.7112750000000        -6.509882566843118E-012
   44.8243250000000        -6.530343477408344E-012
   44.9373750000000        -6.546721319818065E-012
   45.0504250000000        -6.558141312426721E-012
   45.1634750000000        -6.564187702548476E-012
   45.2765250000000        -6.564014552744777E-012
   45.3895750000000        -6.557539082432163E-012
   45.5026250000000        -6.544451818256096E-012
   45.6156750000000        -6.524692504251707E-012
   45.7287250000000        -6.498555978857007E-012
   45.8417750000000        -6.466488795432705E-012
   45.9548250000000        -6.429056643033941E-012
   46.0678750000000        -6.387308137718834E-012
   46.1809250000000        -6.342256094363806E-012
   46.2939750000000        -6.295057001761065E-012
   46.4070250000000        -6.247058742679976E-012
   46.5200750000000        -6.199816468551791E-012
   46.6331250000000        -6.154648885642585E-012
   46.7461750000000        -6.113006483596787E-012
   46.8592250000000        -6.076352911442251E-012
   46.9722750000000        -6.045816042652340E-012
   47.0853250000000        -6.022486983215464E-012
   47.1983750000000        -6.007310083329212E-012
   47.3114250000000        -6.000989220234830E-012
   47.4244750000000        -6.003773509619797E-012
   47.5375250000000        -6.016067649809978E-012
   47.6505750000000        -6.037616488046340E-012
   47.7636250000000        -6.068210070457999E-012
   47.8766750000000        -6.107335522287452E-012
   47.9897250000000        -6.154249569579925E-012
   48.1027750000000        -6.208053430170496E-012
   48.2158250000000        -6.267923894341727E-012
   48.3288750000000        -6.332717214609628E-012
   48.4419250000000        -6.401393778696039E-012
   48.5549750000000        -6.472977180491657E-012
   48.6680250000000        -6.546565088816431E-012
   48.7810750000000        -6.621105541640397E-012
   48.8941250000000        -6.696190039079364E-012
   49.0071750000000        -6.770870571912820E-012
   49.1202250000000        -6.845086418042327E-012
   49.2332750000000        -6.918198942176666E-012
   49.3463250000000        -6.990379853237996E-012
   49.4593750000000        -7.061656297295839E-012
   49.5724250000000        -7.131918354911582E-012
   49.6854750000000        -7.201657123601243E-012
   49.7985250000000        -7.271127300260850E-012
   49.9115750000000        -7.340571491647823E-012
   50.0246250000000        -7.410438463006022E-012
   50.1376750000000        -7.480905294295558E-012
   50.2507250000000        -7.552376012208364E-012
   50.3637750000000        -7.624774968470058E-012
   50.4768250000000        -7.698363083901873E-012
   50.5898750000000        -7.772846200505441E-012
   50.7029250000000        -7.848153240712845E-012
   50.8159750000000        -7.923950010142881E-012
   50.9290250000000        -7.999717327317241E-012
   51.0420750000000        -8.074856678521935E-012
   51.1551250000000        -8.148953372917666E-012
   51.2681750000000        -8.221295246597371E-012
   51.3812250000000        -8.291106535832868E-012
   51.4942750000000        -8.357805933106774E-012
   51.6073250000000        -8.420903062352270E-012
   51.7203750000000        -8.479722200702661E-012
   51.8334250000000        -8.533983130449575E-012
   51.9464750000000        -8.583314566145204E-012
   52.0595250000000        -8.627607229335909E-012
   52.1725750000000        -8.666888842910728E-012
   52.2856250000000        -8.701418908956345E-012
   52.3986750000000        -8.731353493091679E-012
   52.5117250000000        -8.757311623233232E-012
   52.6247750000000        -8.779829622179129E-012
   52.7378250000000        -8.799646984687972E-012
   52.8508750000000        -8.817488586157011E-012
   52.9639250000000        -8.834212415818164E-012
   53.0769750000000        -8.850532866558265E-012
   53.1900250000000        -8.867403746658592E-012
   53.3030750000000        -8.885593421791565E-012
   53.4161250000000        -8.905539068780163E-012
   53.5291750000000        -8.928149140874567E-012
   53.6422250000000        -8.953611951523106E-012
   53.7552750000000        -8.982388632627374E-012
   53.8683250000000        -9.014595882041904E-012
   53.9813750000000        -9.050123588764584E-012
   54.0944250000000        -9.089103791844527E-012
   54.2074750000000        -9.131107528649554E-012
   54.3205250000000        -9.175798914573393E-012
   54.4335750000000        -9.222833850023782E-012
   54.5466250000000        -9.271571228793420E-012
   54.6596750000000        -9.321391381671148E-012
   54.7727250000000        -9.371813591315318E-012
   54.8857750000000        -9.422296530157424E-012
   54.9988250000000        -9.472149595208893E-012
   55.1118750000000        -9.520903977086252E-012
   55.2249250000000        -9.568223491106528E-012
   55.3379750000000        -9.613719567325144E-012
   55.4510250000000        -9.657342167329120E-012
   55.5640750000000        -9.698651879570539E-012
   55.6771250000000        -9.737762863278185E-012
   55.7901750000000        -9.774828332601813E-012
   55.9032250000000        -9.809990566286820E-012
   56.0162750000000        -9.843477505373814E-012
   56.1293250000000        -9.875513803629212E-012
   56.2423750000000        -9.906484832676020E-012
   56.3554250000000        -9.936712745198725E-012
   56.4684750000000        -9.966568506719725E-012
   56.5815250000000        -9.996264289581555E-012
   56.6945750000000        -1.002598018048377E-011
   56.8076250000000        -1.005608695673559E-011
   56.9206750000000        -1.008669331109948E-011
   57.0337250000000        -1.011763168706046E-011
   57.1467750000000        -1.014892356173727E-011
   57.2598250000000        -1.018031628657129E-011
   57.3728750000000        -1.021157376025042E-011
   57.4859250000000        -1.024247582870136E-011
   57.5989750000000        -1.027238622673158E-011
   57.7120250000000        -1.030107774708070E-011
   57.8250750000000        -1.032787684141847E-011
   57.9381250000000        -1.035229847681881E-011
   58.0511750000000        -1.037397860452465E-011
   58.1642250000000        -1.039233172193820E-011
   58.2772750000000        -1.040708505966458E-011
   58.3903250000000        -1.041774830163796E-011
   58.5033750000000        -1.042421801431811E-011
   58.6164250000000        -1.042648095634534E-011
   58.7294750000000        -1.042430157625505E-011
   58.8425250000000        -1.041799957639793E-011
   58.9555750000000        -1.040781328805018E-011
   59.0686250000000        -1.039405266337039E-011
   59.1816750000000        -1.037719591663777E-011
   59.2947250000000        -1.035783665341354E-011
   59.4077750000000        -1.033674393975532E-011
   59.5208250000000        -1.031452891327702E-011
   59.6338750000000        -1.029205998456194E-011
   59.7469250000000        -1.026987530364013E-011
   59.8599750000000        -1.024906988871152E-011
   59.9730250000000        -1.023032650250272E-011
   60.0860750000000        -1.021431537978719E-011
   60.1991250000000        -1.020183620847914E-011
   60.3121750000000        -1.019313320062754E-011
   60.4252250000000        -1.018893656843549E-011
   60.5382750000000        -1.018956929851154E-011
   60.6513250000000        -1.019529408561094E-011
   60.7643750000000        -1.020626635952256E-011
   60.8774250000000        -1.022249498559617E-011
   60.9904750000000        -1.024414038409091E-011
   61.1035250000000        -1.027086231812455E-011
   61.2165750000000        -1.030260685863808E-011
   61.3296250000000        -1.033911565170007E-011
   61.4426750000000        -1.038000876605073E-011
   61.5557250000000        -1.042515890482010E-011
   61.6687750000000        -1.047402450077368E-011
   61.7818250000000        -1.052658852052989E-011
   61.8948750000000        -1.058223311275445E-011
   62.0079250000000        -1.064084791023422E-011
   62.1209750000000        -1.070223242801906E-011
   62.2340250000000        -1.076608073555428E-011
   62.3470750000000        -1.083230066351117E-011
   62.4601250000000        -1.090084445755755E-011
   62.5731750000000        -1.097154687512864E-011
   62.6862250000000        -1.104448445931776E-011
   62.7992750000000        -1.111944783421666E-011
   62.9123250000000        -1.119669601388415E-011
   63.0253750000000        -1.127608534891671E-011
   63.1384250000000        -1.135744275984316E-011
   63.2514750000000        -1.144114592477112E-011
   63.3645250000000        -1.152676250644303E-011
   63.4775750000000        -1.161446602350589E-011
   63.5906250000000        -1.170403510413142E-011
   63.7036750000000        -1.179517073837675E-011
   63.8167250000000        -1.188779371931303E-011
   63.9297750000000        -1.198145480375517E-011
   64.0428250000000        -1.207585865986675E-011
   64.1558750000000        -1.217073352639458E-011
   64.2689250000000        -1.226530291370338E-011
   64.3819750000000        -1.235943971178079E-011
   64.4950250000000        -1.245242062903375E-011
   64.6080750000000        -1.254365455126446E-011
   64.7211250000000        -1.263268978900868E-011
   64.8341750000000        -1.271897450146206E-011
   64.9472250000000        -1.280202626688466E-011
   65.0602750000000        -1.288134079764043E-011
   65.1733250000000        -1.295644570777091E-011
   65.2863750000000        -1.302697735972953E-011
   65.3994250000000        -1.309274750517856E-011
   65.5124750000000        -1.315341885348754E-011