 -0.847875000000000         3.737068480226261E-024
 -0.734825000000000         1.488744628202469E-023
 -0.621775000000000         5.143477360308658E-023
 -0.508725000000000         2.004568145892622E-022
 -0.395675000000000         7.509207221225138E-022
 -0.282625000000000         2.456242028317302E-021
 -0.169575000000000         6.890209962876893E-021
 -5.652500000000005E-002    1.651694214392603E-020
  5.652499999999994E-002    3.356529283535286E-020
  0.169575000000000         5.627064327808318E-020
  0.282625000000000         7.231635980738629E-020
  0.395675000000000         4.910609771511724E-020
  0.508725000000000        -7.859707342216584E-020
  0.621775000000000        -4.224286185328040E-019
  0.734825000000000        -1.152366768522115E-018
  0.847875000000000        -2.508902756543538E-018
  0.960925000000000        -4.817772252625847E-018
   1.07397500000000        -8.500447092680499E-018
   1.18702500000000        -1.407868819267983E-017
   1.30007500000000        -2.218580666525719E-017
   1.41312500000000        -3.357349213009293E-017
   1.52617500000000        -4.911325856698329E-017
   1.63922500000000        -6.979528333215717E-017
   1.75227500000000        -9.673076668418027E-017
   1.86532500000000        -1.311600215036063E-016
   1.97837500000000        -1.744174975163817E-016
   2.09142500000000        -2.279232799845719E-016
   2.20447500000000        -2.931865485302293E-016
   2.31752500000000        -3.717622738992247E-016
   2.43057500000000        -4.652577356084845E-016
   2.54362500000000        -5.753042872896218E-016
   2.65667500000000        -7.035012203866156E-016
   2.76972500000000        -8.514008720374065E-016
   2.88277500000000        -1.020492901823639E-015
   2.99582500000000        -1.212152351865920E-015
   3.10887500000000        -1.427618549534227E-015
   3.22192500000000        -1.667977128130967E-015
   3.33497500000000        -1.934130792649781E-015
   3.44802500000000        -2.226794467988061E-015
   3.56107500000000        -2.546439688692857E-015
   3.67412500000000        -2.893316884133642E-015
   3.78717500000000        -3.267447270164892E-015
   3.90022500000000        -3.668624125017977E-015
   4.01327500000000        -4.096464455587965E-015
   4.12632500000000        -4.550351343210921E-015
   4.23937500000000        -5.029489376545265E-015
   4.35242500000000        -5.532955347456209E-015
   4.46547500000000        -6.059735488844463E-015
   4.57852500000000        -6.608769423897549E-015
   4.69157500000000        -7.178962702153352E-015
   4.80462500000000        -7.769264088919248E-015
   4.91767500000000        -8.378696058386705E-015
   5.03072500000000        -9.006403799684919E-015
   5.14377500000000        -9.651721430583398E-015
   5.25682500000000        -1.031416385889535E-014
   5.36987500000000        -1.099343283758374E-014
   5.48292500000000        -1.168948849381846E-014
   5.59597500000000        -1.240255175508827E-014
   5.70902500000000        -1.313307516518045E-014
   5.82207500000000        -1.388168995848720E-014
   5.93512500000000        -1.464924395460348E-014
   6.04817500000000        -1.543676637967938E-014
   6.16122500000000        -1.624531844939598E-014
   6.27427500000000        -1.707595624680017E-014
   6.38732500000000        -1.792971428994654E-014
   6.50037500000000        -1.880755000009454E-014
   6.61342500000000        -1.971017877271416E-014
   6.72647500000000        -2.063804286224385E-014
   6.83952500000000        -2.159123256493703E-014
   6.95257500000000        -2.256947738872418E-014
   7.06562500000000        -2.357206944254491E-014
   7.17867500000000        -2.459772539873273E-014
   7.29172500000000        -2.564467695577196E-014
   7.40477500000000        -2.671069379287532E-014
   7.51782500000000        -2.779305461702375E-014
   7.63087500000000        -2.888854465842367E-014
   7.74392500000000        -2.999362514102382E-014
   7.85697500000000        -3.110446010471711E-014
   7.97002500000000        -3.221691943292485E-014
   8.08307500000000        -3.332680398050704E-014
   8.19612500000000        -3.442993941214491E-014
   8.30917500000000        -3.552226021677917E-014
   8.42222500000000        -3.659991759536424E-014
   8.53527500000000        -3.765942764910699E-014
   8.64832500000000        -3.869778742586662E-014
   8.76137500000000        -3.971249511813863E-014
   8.87442500000000        -4.070166772619762E-014
   8.98747500000000        -4.166406821101335E-014
   9.10052500000000        -4.259910624070455E-014
   9.21357500000000        -4.350687511574829E-014
   9.32662500000000        -4.438811129103690E-014
   9.43967500000000        -4.524407398585231E-014
   9.55272500000000        -4.607648422793207E-014
   9.66577500000000        -4.688744481976616E-014
   9.77882500000000        -4.767930275004370E-014
   9.89187500000000        -4.845452779719697E-014
   10.0049250000000        -4.921553351702061E-014
   10.1179750000000        -4.996458535756098E-014
   10.2310250000000        -5.070370906908092E-014
   10.3440750000000        -5.143450544103779E-014
   10.4571250000000        -5.215810178921411E-014
   10.5701750000000        -5.287510890274437E-014
   10.6832250000000        -5.358556624864964E-014
   10.7962750000000        -5.428893478596853E-014
   10.9093250000000        -5.498414211791781E-014
   11.0223750000000        -5.566963900596106E-014
   11.1354250000000        -5.634347961397735E-014
   11.2484750000000        -5.700346944250073E-014
   11.3615250000000        -5.764725329660041E-014
   11.4745750000000        -5.827247669857929E-014
   11.5876250000000        -5.887694762166138E-014
   11.7006750000000        -5.945878849909024E-014
   11.8137250000000        -6.001656295117171E-014
   11.9267750000000        -6.054935521234360E-014
   12.0398250000000        -6.105693164428595E-014
   12.1528750000000        -6.153978638991770E-014
   12.2659250000000        -6.199912574195784E-014
   12.3789750000000        -6.243689196869227E-014
   12.4920250000000        -6.285573160806848E-014
   12.6050750000000        -6.325889519055408E-014
   12.7181250000000        -6.365012557622497E-014
   12.8311750000000        -6.403348955613463E-014
   12.9442250000000        -6.441326981216476E-014
   13.0572750000000        -6.479375153822996E-014
   13.1703250000000        -6.517899729213855E-014
   13.2833750000000        -6.557274948638658E-014
   13.3964250000000        -6.597819448287227E-014
   13.5094750000000        -6.639783379512077E-014
   13.6225250000000        -6.683336059232043E-014
   13.7355750000000        -6.728556271064131E-014
   13.8486250000000        -6.775430024873110E-014
   13.9616750000000        -6.823849512096353E-014
   14.0747250000000        -6.873610930853120E-014
   14.1877750000000        -6.924428126374196E-014
   14.3008250000000        -6.975944356550067E-014
   14.4138750000000        -7.027741844564203E-014
   14.5269250000000        -7.079366118403661E-014
   14.6399750000000        -7.130343648471231E-014
   14.7530250000000        -7.180196029084609E-014
   14.8660750000000        -7.228465452281485E-014
   14.9791250000000        -7.274737767870205E-014
   15.0921750000000        -7.318650782944353E-014
   15.2052250000000        -7.359914467459288E-014
   15.3182750000000        -7.398326214998030E-014
   15.4313250000000        -7.433775150812626E-014
   15.5443750000000        -7.466244367298562E-014
   15.6574250000000        -7.495815509154821E-014
   15.7704750000000        -7.522662353306546E-014
   15.8835250000000        -7.547044462844080E-014
   15.9965750000000        -7.569295255598132E-014
   16.1096250000000        -7.589808045420293E-014
   16.2226750000000        -7.609023609211973E-014
   16.3357250000000        -7.627408104214596E-014
   16.4487750000000        -7.645440918484144E-014
   16.5618250000000        -7.663594531696940E-014
   16.6748750000000        -7.682319032584718E-014
   16.7879250000000        -7.702030887823847E-014
   16.9009750000000        -7.723101648309130E-014
   17.0140250000000        -7.745848782810038E-014
   17.1270750000000        -7.770529746651975E-014
   17.2401250000000        -7.797343655612373E-014
   17.3531750000000        -7.826429652676641E-014
   17.4662250000000        -7.857873792137929E-014
   17.5792750000000        -7.891714273450187E-014
   17.6923250000000        -7.927946760444700E-014
   17.8053750000000        -7.966544051814901E-014
   17.9184250000000        -8.007462187995485E-014
   18.0314750000000        -8.050649349172844E-014
   18.1445250000000        -8.096062953880391E-014
   18.2575750000000        -8.143673582033401E-014
   18.3706250000000        -8.193472606442918E-014
   18.4836750000000        -8.245485316750022E-014
   18.5967250000000        -8.299771280582037E-014
   18.7097750000000        -8.356422245137678E-014
   18.8228250000000        -8.415564021887859E-014
   18.9358750000000        -8.477354613084457E-014
   19.0489250000000        -8.541979413574215E-014
   19.1619750000000        -8.609638678787323E-014
   19.2750250000000        -8.680543639588284E-014
   19.3880750000000        -8.754907236531392E-014
   19.5011250000000        -8.832930132925704E-014
   19.6141750000000        -8.914795569120598E-014
   19.7272250000000        -9.000657954183995E-014
   19.8402750000000        -9.090633475077765E-014
   19.9533250000000        -9.184794499823501E-014
   20.0663750000000        -9.283164556660871E-014
   20.1794250000000        -9.385713346984916E-014
   20.2924750000000        -9.492355135216937E-014
   20.4055250000000        -9.602948251217855E-014
   20.5185750000000        -9.717295464849420E-014
   20.6316250000000        -9.835149490846482E-014
   20.7446750000000        -9.956218216824623E-014
   20.8577250000000        -1.008016888932477E-013
   20.9707750000000        -1.020663542589028E-013
   21.0838250000000        -1.033522459774247E-013
   21.1968750000000        -1.046552535100316E-013
   21.3099250000000        -1.059711701166647E-013
   21.4229750000000        -1.072957453142601E-013
   21.5360250000000        -1.086248046201400E-013
   21.6490750000000        -1.099542816524079E-013
   21.7621250000000        -1.112803083745449E-013
   21.8751750000000        -1.125992778090031E-013
   21.9882250000000        -1.139078876680509E-013
   22.1012750000000        -1.152031807520237E-013
   22.2143250000000        -1.164826150302579E-013
   22.3273750000000        -1.177440803521390E-013
   22.4404250000000        -1.189858868755141E-013
   22.5534750000000        -1.202068265328131E-013
   22.6665250000000        -1.214062046756937E-013
   22.7795750000000        -1.225838546932852E-013
   22.8926250000000        -1.237400617661569E-013
   23.0056750000000        -1.248756079080707E-013
   23.1187250000000        -1.259917448681540E-013
   23.2317750000000        -1.270901638265447E-013
   23.3448250000000        -1.281729803635794E-013
   23.4578750000000        -1.292426645474114E-013
   23.5709250000000        -1.303020216845241E-013
   23.6839750000000        -1.313541024545550E-013
   23.7970250000000        -1.324021815542642E-013
   23.9100750000000        -1.334496905649826E-013
   24.0231250000000        -1.345000850940795E-013
   24.1361750000000        -1.355567986454007E-013
   24.2492250000000        -1.366232145304624E-013
   24.3622750000000        -1.377025843922064E-013
   24.4753250000000        -1.387979551564283E-013
   24.5883750000000        -1.399121280675255E-013
   24.7014250000000        -1.410475554669780E-013
   24.8144750000000        -1.422063443260907E-013
   24.9275250000000        -1.433902430393886E-013
   25.0405750000000        -1.446005900722643E-013
   25.1536250000000        -1.458383328361206E-013
   25.2666750000000        -1.471040127190062E-013
   25.3797250000000        -1.483977607987004E-013
   25.4927750000000        -1.497193329373267E-013
   25.6058250000000        -1.510681349170980E-013
   25.7188750000000        -1.524432269858792E-013
   25.8319250000000        -1.538433876536640E-013
   25.9449750000000        -1.552671205370777E-013
   26.0580250000000        -1.567126455357423E-013
   26.1710750000000        -1.581779405921747E-013
   26.2841250000000        -1.596607547913010E-013
   26.3971750000000        -1.611586663771273E-013
   26.5102250000000        -1.626690328163138E-013
   26.6232750000000        -1.641889768947632E-013
   26.7363250000000        -1.657154368912304E-013
   26.8493750000000        -1.672451568437078E-013
   26.9624250000000        -1.687746829482953E-013
   27.0754750000000        -1.703003486968937E-013
   27.1885250000000        -1.718183018060953E-013
   27.3015750000000        -1.733245426945716E-013
   27.4146250000000        -1.748149417195012E-013
   27.5276750000000        -1.762852727456853E-013
   27.6407250000000        -1.777312820627901E-013
   27.7537750000000        -1.791487379183528E-013
   27.8668250000000        -1.805335192808981E-013
   27.9798750000000        -1.818816964646083E-013
   28.0929250000000        -1.831896555594940E-013
   28.2059750000000        -1.844541722305830E-013
   28.3190250000000        -1.856724893668822E-013
   28.4320750000000        -1.868424407252417E-013
   28.5451250000000        -1.879625231151220E-013
   28.6581750000000        -1.890319492689799E-013
   28.7712250000000        -1.900507212658744E-013
   28.8842750000000        -1.910196689418665E-013
   28.9973250000000        -1.919404500576747E-013
   29.1103750000000        -1.928155242359283E-013
   29.2234250000000        -1.936481227386754E-013
   29.3364750000000        -1.944421913855899E-013
   29.4495250000000        -1.952022730275739E-013
   29.5625750000000        -1.959334437390943E-013
   29.6756250000000        -1.966411584729793E-013
   29.7886750000000        -1.973311155935388E-013
   29.9017250000000        -1.980091037962521E-013
   30.0147750000000        -1.986808779234133E-013
   30.1278250000000        -1.993520572202119E-013
   30.2408750000000        -2.000279076070046E-013
   30.3539250000000        -2.007132743623872E-013
   30.4669750000000        -2.014125228492711E-013
   30.5800250000000        -2.021294241079417E-013
   30.6930750000000        -2.028671124317286E-013
   30.8061250000000        -2.036280814067901E-013
   30.9191750000000        -2.044141731996740E-013
   31.0322250000000        -2.052265847691085E-013
   31.1452750000000        -2.060659903561456E-013
   31.2583250000000        -2.069325635759524E-013
   31.3713750000000        -2.078260714839590E-013
   31.4844250000000        -2.087459521177873E-013
   31.5974750000000        -2.096914186264370E-013
   31.7105250000000        -2.106615967655899E-013
   31.8235750000000        -2.116555453067845E-013
   31.9366250000000        -2.126723822807040E-013
   32.0496750000000        -2.137113522808147E-013
   32.1627250000000        -2.147718626783949E-013
   32.2757750000000        -2.158535194174246E-013
   32.3888250000000        -2.169561334566797E-013
   32.5018750000000        -2.180797391703497E-013
   32.6149250000000        -2.192246028821195E-013
   32.7279750000000        -2.203911036579964E-013
   32.8410250000000        -2.215797470168616E-013
   32.9540750000000        -2.227911337298930E-013
   33.0671250000000        -2.240258521764968E-013
   33.1801750000000        -2.252844941519307E-013
   33.2932250000000        -2.265675316062197E-013
   33.4062750000000        -2.278752810541296E-013
   33.5193250000000        -2.292079346967342E-013
   33.6323750000000        -2.305654580178753E-013
   33.7454250000000        -2.319476013891234E-013
   33.8584750000000        -2.333539356064608E-013
   33.9715250000000        -2.347837986388759E-013
   34.0845750000000        -2.362363671343053E-013
   34.1976250000000        -2.377106658624296E-013
   34.3106750000000        -2.392056018894539E-013
   34.4237250000000        -2.407200145647980E-013
   34.5367750000000        -2.422526942367069E-013
   34.6498250000000        -2.438024336902615E-013
   34.7628750000000        -2.453680703082863E-013
   34.8759250000000        -2.469485041559510E-013
   34.9889750000000        -2.485427376204554E-013
   35.1020250000000        -2.501498621479997E-013
   35.2150750000000        -2.517690571945283E-013
   35.3281250000000        -2.533996307320132E-013
   35.4411750000000        -2.550409771123386E-013
   35.5542250000000        -2.566925570864156E-013
   35.6672750000000        -2.583538957586720E-013
   35.7803250000000        -2.600245752935614E-013
   35.8933750000000        -2.617041651773189E-013
   36.0064250000000        -2.633922511906192E-013
   36.1194750000000        -2.650884345179494E-013
   36.2325250000000        -2.667922890651101E-013
   36.3455750000000        -2.685033759410894E-013
   36.4586250000000        -2.702212791726129E-013
   36.5716750000000        -2.719456377492478E-013
   36.6847250000000        -2.736761627220563E-013
   36.7977750000000        -2.754126512833962E-013
   36.9108250000000        -2.771550194813876E-013
   37.0238750000000        -2.789034056143709E-013
   37.1369250000000        -2.806582147895214E-013
   37.2499750000000        -2.824201151328619E-013
   37.3630250000000        -2.841900894456128E-013
   37.4760750000000        -2.859694669189071E-013
   37.5891250000000        -2.877599566005691E-013
   37.7021750000000        -2.895636562221892E-013
   37.8152250000000        -2.913829918149940E-013
   37.9282750000000        -2.932207039080885E-013
   38.0413250000000        -2.950798604953026E-013
   38.1543750000000        -2.969637504179783E-013
   38.2674250000000        -2.988757903235402E-013
   38.3804750000000        -3.008194697579173E-013
   38.4935250000000        -3.027982413881291E-013
   38.6065750000000        -3.048154296537166E-013
   38.7196250000000        -3.068741130920845E-013
   38.8326750000000        -3.089769989699322E-013
   38.9457250000000        -3.111263293260227E-013
   39.0587750000000        -3.133237980613064E-013
   39.1718250000000        -3.155704327855838E-013
   39.2848750000000        -3.178665317172175E-013
   39.3979250000000        -3.202116240930527E-013
   39.5109750000000        -3.226044101282563E-013
   39.6240250000000        -3.250427411071620E-013
   39.7370750000000        -3.275236380754845E-013
   39.8501250000000        -3.300433141135486E-013
   39.9631750000000        -3.325972168496260E-013
   40.0762250000000        -3.351801111068397E-013
   40.1892750000000        -3.377861672630004E-013
   40.3023250000000        -3.404090469062828E-013
   40.4153750000000        -3.430420453270719E-013
   40.5284250000000        -3.456782200416882E-013
   40.6414750000000        -3.483105195549581E-013
   40.7545250000000        -3.509319313028183E-013
   40.8675750000000        -3.535356468288337E-013
   40.9806250000000        -3.561151848063782E-013
   41.0936750000000        -3.586645220146420E-013
   41.2067250000000        -3.611782444778398E-013
   41.3197750000000        -3.636516265932483E-013
   41.4328250000000        -3.660807551775217E-013
   41.5458750000000        -3.684625979835695E-013
   41.6589250000000        -3.707950427469399E-013
   41.7719750000000        -3.730769485953068E-013
   41.8850250000000        -3.753081545341635E-013
   41.9980750000000        -3.774894464590542E-013
   42.1111250000000        -3.796225431520315E-013
   42.2241750000000        -3.817100608443963E-013
   42.3372250000000        -3.837554203880696E-013
   42.4502750000000        -3.857627463466800E-013
   42.5633250000000        -3.877367581360146E-013
   42.6763750000000        -3.896826557102245E-013
   42.7894250000000        -3.916060593258815E-013
   42.9024750000000        -3.935128125244992E-013
   43.0155250000000        -3.954088226120785E-013
   43.1285750000000        -3.973000136528924E-013
   43.2416250000000        -3.991921903837799E-013
   43.3546750000000        -4.010909057293754E-013
   43.4677250000000        -4.030013820419158E-013
   43.5807750000000        -4.049284031479920E-013
   43.6938250000000        -4.068762573644889E-013
   43.8068750000000        -4.088487210705137E-013
   43.9199250000000        -4.108489960313587E-013
   44.0329750000000        -4.128796669627669E-013
   44.1460250000000        -4.149426913126893E-013
   44.2590750000000        -4.170394468934641E-013
   44.3721250000000        -4.191708255041934E-013
   44.4851750000000        -4.213371259453753E-013
   44.5982250000000        -4.235380826792895E-013
   44.7112750000000        -4.257730706141942E-013
   44.8243250000000        -4.280410362380087E-013
   44.9373750000000        -4.303405311886848E-013
   45.0504250000000        -4.326697958720832E-013
   45.1634750000000        -4.350267911569188E-013
   45.2765250000000        -4.374092408598578E-013
   45.3895750000000        -4.398146593767656E-013
   45.5026250000000        -4.422403604093306E-013
   45.6156750000000        -4.446834779048957E-013
   45.7287250000000        -4.471410125021674E-013
   45.8417750000000        -4.496098191500263E-013
   45.9548250000000        -4.520866193878861E-013
   46.0678750000000        -4.545680553395627E-013
   46.1809250000000        -4.570507449833853E-013
   46.2939750000000        -4.595312187200801E-013
   46.4070250000000        -4.620059137199900E-013
   46.5200750000000        -4.644713864759691E-013
   46.6331250000000        -4.669242746484842E-013
   46.7461750000000        -4.693612800210571E-013
   46.8592250000000        -4.717793543333234E-013
   46.9722750000000        -4.741757367841013E-013
   47.0853250000000        -4.765479797948513E-013
   47.1983750000000        -4.788940875985615E-013
   47.3114250000000        -4.812125846593867E-013
   47.4244750000000        -4.835025741217435E-013
   47.5375250000000        -4.857638111146331E-013
   47.6505750000000        -4.879967492567225E-013
   47.7636250000000        -4.902025889673928E-013
   47.8766750000000        -4.923832885513037E-013
   47.9897250000000        -4.945415854200847E-013
   48.1027750000000        -4.966810299028147E-013
   48.2158250000000        -4.988058636715342E-013
   48.3288750000000        -5.009209824666321E-013
   48.4419250000000        -5.030318987254946E-013
   48.5549750000000        -5.051445840514630E-013
   48.6680250000000        -5.072653796388632E-013
   48.7810750000000        -5.094008423110341E-013
   48.8941250000000        -5.115576486293520E-013
   49.0071750000000        -5.137424155304719E-013
   49.1202250000000        -5.159615225096280E-013
   49.2332750000000        -5.182210249331039E-013
   49.3463250000000        -5.205264934983661E-013
   49.4593750000000        -5.228828915232090E-013
   49.5724250000000        -5.252944919550751E-013
   49.6854750000000        -5.277647643578705E-013
   49.7985250000000        -5.302963189492255E-013
   49.9115750000000        -5.328909175663197E-013
   50.0246250000000        -5.355494413812873E-013
   50.1376750000000        -5.382719108512098E-013
   50.2507250000000        -5.410575653491579E-013
   50.3637750000000        -5.439048925450683E-013
   50.4768250000000        -5.468117314414765E-013
   50.5898750000000        -5.497754258447475E-013
   50.7029250000000        -5.527928787914234E-013
   50.8159750000000        -5.558607321223685E-013
   50.9290250000000        -5.589755050961689E-013
   51.0420750000000        -5.621336594912231E-013
   51.1551250000000        -5.653317636503154E-013
   51.2681750000000        -5.685666233419042E-013
   51.3812250000000        -5.718353320484041E-013
   51.4942750000000        -5.751353574867008E-013
   51.6073250000000        -5.784646156275174E-013
   51.7203750000000        -5.818214949888219E-013
   51.8334250000000        -5.852048201975747E-013
   51.9464750000000        -5.886138423099285E-013
   52.0595250000000        -5.920482330141178E-013
   52.1725750000000        -5.955080073756126E-013
   52.2856250000000        -5.989934397920548E-013
   52.3986750000000        -6.025049491138668E-013
   52.5117250000000        -6.060430289471945E-013
   52.6247750000000        -6.096081545696355E-013
   52.7378250000000        -6.132006305067876E-013
   52.8508750000000        -6.168205033697416E-013
   52.9639250000000        -6.204675184470151E-013
   53.0769750000000        -6.241410102702797E-013
   53.1900250000000        -6.278398371975903E-013
   53.3030750000000        -6.315623552485914E-013
   53.4161250000000        -6.353064423609949E-013
   53.5291750000000        -6.390694584303064E-013
   53.6422250000000        -6.428483003546143E-013
   53.7552750000000        -6.466395004132581E-013
   53.8683250000000        -6.504392523892678E-013
   53.9813750000000        -6.542435450159624E-013
   54.0944250000000        -6.580482478307483E-013
   54.2074750000000        -6.618492264953236E-013
   54.3205250000000        -6.656425554520393E-013
   54.4335750000000        -6.694245410958617E-013
   54.5466250000000        -6.731918488155505E-013
   54.6596750000000        -6.769417145183281E-013
   54.7727250000000        -6.806719539728023E-013
   54.8857750000000        -6.843810455612141E-013
   54.9988250000000        -6.880682020695776E-013
   55.1118750000000        -6.917333782418287E-013
   55.2249250000000        -6.953772732691165E-013
   55.3379750000000        -6.990013019851577E-013
   55.4510250000000        -7.026075630067103E-013
   55.5640750000000        -7.061987438740928E-013
   55.6771250000000        -7.097780378601835E-013
   55.7901750000000        -7.133489838432007E-013
   55.9032250000000        -7.169153518785503E-013
   56.0162750000000        -7.204810666491984E-013
   56.1293250000000        -7.240500513208474E-013
   56.2423750000000        -7.276261338205410E-013
   56.3554250000000        -7.312129093053384E-013
   56.4684750000000        -7.348136073700237E-013
   56.5815250000000        -7.384310635709474E-013
   56.6945750000000        -7.420676734441907E-013
   56.8076250000000        -7.457253438733471E-013
   56.9206750000000        -7.494055019806307E-013
   57.0337250000000        -7.531090721568528E-013
   57.1467750000000        -7.568365669897075E-013
   57.2598250000000        -7.605881621589261E-013
   57.3728750000000        -7.643636954495001E-013
   57.4859250000000        -7.681627963964575E-013
   57.5989750000000        -7.719849631757038E-013
   57.7120250000000        -7.758296351135174E-013
   57.8250750000000        -7.796962716762424E-013
   57.9381250000000        -7.835843668100274E-013
   58.0511750000000        -7.874935311370898E-013
   58.1642250000000        -7.914234932985786E-013
   58.2772750000000        -7.953740804454689E-013
   58.3903250000000        -7.993451707246338E-013
   58.5033750000000        -8.033366732371221E-013
   58.6164250000000        -8.073484644692855E-013
   58.7294750000000        -8.113802567271478E-013
   58.8425250000000        -8.154315334564044E-013
   58.9555750000000        -8.195014470076854E-013
   59.0686250000000        -8.235887335721240E-013
   59.1816750000000        -8.276916155956931E-013
   59.2947250000000        -8.318077607145283E-013
   59.4077750000000        -8.359342599520054E-013
   59.5208250000000        -8.400676189442337E-013
   59.6338750000000        -8.442038033588078E-013
   59.7469250000000        -8.483383028272625E-013
   59.8599750000000        -8.524662502446411E-013
   59.9730250000000        -8.565825561945891E-013
   60.0860750000000        -8.606821102170276E-013
   60.1991250000000        -8.647600027707622E-013
   60.3121750000000        -8.688117014402988E-013
   60.4252250000000        -8.728332676586622E-013
   60.5382750000000        -8.768216123161693E-013
   60.6513250000000        -8.807746811947695E-013
   60.7643750000000        -8.846915689277353E-013
   60.8774250000000        -8.885727119526704E-013
   60.9904750000000        -8.924199420079987E-013
   61.1035250000000        -8.962364537224931E-013
   61.2165750000000        -9.000267608373972E-013
   61.3296250000000        -9.037965978750816E-013
   61.4426750000000        -9.075527670648729E-013
   61.5557250000000        -9.113027758757332E-013
   61.6687750000000        -9.150545932176847E-013
   61.7818250000000        -9.188163063227826E-013
   61.8948750000000        -9.225957313657351E-013
   62.0079250000000        -9.264001094970796E-013
   62.1209750000000        -9.302356787549395E-013
   62.2340250000000        -9.341073318263930E-013
   62.3470750000000        -9.380183617993109E-013
   62.4601250000000        -9.419702521540601E-013
   62.5731750000000        -9.459625893904900E-013
   62.6862250000000        -9.499930757472826E-013
   62.7992750000000        -9.540576182813819E-013
   62.9123250000000        -9.581506070727202E-013
   63.0253750000000        -9.622652784178382E-013
   63.1384250000000        -9.663941959488249E-013
   63.2514750000000        -9.705298334982301E-013
   63.3645250000000        -9.746652658056898E-013
   63.4775750000000        -9.787949240830405E-013
   63.5906250000000        -9.829153115707154E-013
   63.7036750000000        -9.870257177032125E-013
   63.8167250000000        -9.911289403300927E-013
   63.9297750000000        -9.952318462401128E-013
   64.0428250000000        -9.993457217148602E-013
   64.1558750000000        -1.003486576432081E-012
   64.2689250000000        -1.007675141092659E-012
   64.3819750000000        -1.011936548481467E-012
   64.4950250000000        -1.016299833475018E-012
   64.6080750000000        -1.020797111932845E-012
   64.7211250000000        -1.025462417711637E-012
   64.8341750000000        -1.030330306045778E-012
   64.9472250000000        -1.035434202097570E-012
   65.0602750000000        -1.040804515467449E-012
   65.1733250000000        -1.046466655161238E-012
   65.2863750000000        -1.052438959029635E-012
   65.3994250000000        -1.058730670724629E-012
   65.5124750000000        -1.065339992737856E-012