 -0.847875000000000         6.582866708384707E-025
 -0.734825000000000         6.579598027832687E-025
 -0.621775000000000         6.574397647401615E-025
 -0.508725000000000         6.578520339090752E-025
 -0.395675000000000         6.656864390244726E-025
 -0.282625000000000         7.096242771606943E-025
 -0.169575000000000         8.982016995139202E-025
 -5.652500000000005E-002    1.578154222744980E-024
  5.652499999999994E-002    3.714799675061208E-024
  0.169575000000000         9.697977899311965E-024
  0.282625000000000         2.480831871917940E-023
  0.395675000000000         5.964521116093563E-023
  0.508725000000000         1.336870560547928E-022
  0.621775000000000         2.801191501969422E-022
  0.734825000000000         5.521089570723464E-022
  0.847875000000000         1.030102939931221E-021
  0.960925000000000         1.830876063823172E-021
   1.07397500000000         3.116353287878156E-021
   1.18702500000000         5.104362591894509E-021
   1.30007500000000         8.079115866103386E-021
   1.41312500000000         1.240242222725816E-020
   1.52617500000000         1.852425037054883E-020
   1.63922500000000         2.699354319628900E-020
   1.75227500000000         3.846644601535380E-020
   1.86532500000000         5.371581615303570E-020
   1.97837500000000         7.363803473297345E-020
   2.09142500000000         9.925793357812785E-020
   2.20447500000000         1.317312615710776E-019
   2.31752500000000         1.723461866329212E-019
   2.43057500000000         2.225182956551698E-019
   2.54362500000000         2.837908764661184E-019
   2.65667500000000         3.578223904026645E-019
   2.76972500000000         4.463790294112786E-019
   2.88277500000000         5.513195535793957E-019
   2.99582500000000         6.745831277112764E-019
   3.10887500000000         8.181661508074598E-019
   3.22192500000000         9.841095923217692E-019
   3.33497500000000         1.174472060767264E-018
   3.44802500000000         1.391313641331849E-018
   3.56107500000000         1.636671647196234E-018
   3.67412500000000         1.912537426229266E-018
   3.78717500000000         2.220837287967574E-018
   3.90022500000000         2.563413887414979E-018
   4.01327500000000         2.942009162996399E-018
   4.12632500000000         3.358252214819875E-018
   4.23937500000000         3.813642844862374E-018
   4.35242500000000         4.309545596511394E-018
   4.46547500000000         4.847185992049283E-018
   4.57852500000000         5.427650917889490E-018
   4.69157500000000         6.051888163258413E-018
   4.80462500000000         6.720714964969663E-018
   4.91767500000000         7.434824706462937E-018
   5.03072500000000         8.194798175150907E-018
   5.14377500000000         9.001120198587421E-018
   5.25682500000000         9.854198641624118E-018
   5.36987500000000         1.075437525715209E-017
   5.48292500000000         1.170193989107859E-017
   5.59597500000000         1.269715829370774E-017
   5.70902500000000         1.374028156882470E-017
   5.82207500000000         1.483156663865457E-017
   5.93512500000000         1.597128076866626E-017
   6.04817500000000         1.715971797694864E-017
   6.16122500000000         1.839720645470157E-017
   6.27427500000000         1.968411359901262E-017
   6.38732500000000         2.102084328896258E-017
   6.50037500000000         2.240784315116520E-017
   6.61342500000000         2.384559777704562E-017
   6.72647500000000         2.533462188682436E-017
   6.83952500000000         2.687545314812164E-017
   6.95257500000000         2.846864426916364E-017
   7.06562500000000         3.011474995163234E-017
   7.17867500000000         3.181431950290823E-017
   7.29172500000000         3.356788275154253E-017
   7.40477500000000         3.537593906119157E-017
   7.51782500000000         3.723895386280363E-017
   7.63087500000000         3.915734725275122E-017
   7.74392500000000         4.113148711508519E-017
   7.85697500000000         4.316169115036543E-017
   7.97002500000000         4.524822372058497E-017
   8.08307500000000         4.739129744793247E-017
   8.19612500000000         4.959107756917959E-017
   8.30917500000000         5.184768696347156E-017
   8.42222500000000         5.416121401078252E-017
   8.53527500000000         5.653171779142640E-017
   8.64832500000000         5.895924467427495E-017
   8.76137500000000         6.144383314513508E-017
   8.87442500000000         6.398551954844164E-017
   8.98747500000000         6.658434930976633E-017
   9.10052500000000         6.924038202169705E-017
   9.21357500000000         7.195369181207522E-017
   9.32662500000000         7.472437409589968E-017
   9.43967500000000         7.755254351540720E-017
   9.55272500000000         8.043832585415612E-017
   9.66577500000000         8.338185321864304E-017
   9.77882500000000         8.638325160229337E-017
   9.89187500000000         8.944263044201432E-017
   10.0049250000000         9.256007213764678E-017
   10.1179750000000         9.573560624107322E-017
   10.2310250000000         9.896919929967545E-017
   10.3440750000000         1.022607406813447E-016
   10.4571250000000         1.056100218449513E-016
   10.5701750000000         1.090167270079794E-016
   10.6832250000000         1.124804191796405E-016
   10.7962750000000         1.160005311172312E-016
   10.9093250000000         1.195763605187891E-016
   11.0223750000000         1.232070719987416E-016
   11.1354250000000         1.268916987371227E-016
   11.2484750000000         1.306291516006915E-016
   11.3615250000000         1.344182315501377E-016
   11.4745750000000         1.382576462510090E-016
   11.5876250000000         1.421460335873212E-016
   11.7006750000000         1.460819827236067E-016
   11.8137250000000         1.500640647459942E-016
   11.9267750000000         1.540908596940499E-016
   12.0398250000000         1.581609816601120E-016
   12.1528750000000         1.622731154100634E-016
   12.2659250000000         1.664260370814356E-016
   12.3789750000000         1.706186412901640E-016
   12.4920250000000         1.748499642180421E-016
   12.6050750000000         1.791192015065698E-016
   12.7181250000000         1.834257209538769E-016
   12.8311750000000         1.877690697541075E-016
   12.9442250000000         1.921489784629335E-016
   13.0572750000000         1.965653585189934E-016
   13.1703250000000         2.010182925042046E-016
   13.2833750000000         2.055080225882207E-016
   13.3964250000000         2.100349337861121E-016
   13.5094750000000         2.145995299394185E-016
   13.6225250000000         2.192024137476603E-016
   13.7355750000000         2.238442578142403E-016
   13.8486250000000         2.285257777077876E-016
   13.9616750000000         2.332477066280946E-016
   14.0747250000000         2.380107657879717E-016
   14.1877750000000         2.428156426584991E-016
   14.3008250000000         2.476629702713541E-016
   14.4138750000000         2.525533083086807E-016
   14.5269250000000         2.574871270805344E-016
   14.6399750000000         2.624647972863587E-016
   14.7530250000000         2.674865879035431E-016
   14.8660750000000         2.725526602927927E-016
   14.9791250000000         2.776630753638907E-016
   15.0921750000000         2.828177984632155E-016
   15.2052250000000         2.880167093112934E-016
   15.3182750000000         2.932596152405651E-016
   15.4313250000000         2.985462661863366E-016
   15.5443750000000         3.038763759729045E-016
   15.6574250000000         3.092496394259310E-016
   15.7704750000000         3.146657482715864E-016
   15.8835250000000         3.201244146575666E-016
   15.9965750000000         3.256253877130478E-016
   16.1096250000000         3.311684662511240E-016
   16.2226750000000         3.367535204550033E-016
   16.3357250000000         3.423805037961378E-016
   16.4487750000000         3.480494629451152E-016
   16.5618250000000         3.537605492097422E-016
   16.6748750000000         3.595140231036555E-016
   16.7879250000000         3.653102636705767E-016
   16.9009750000000         3.711497672008847E-016
   17.0140250000000         3.770331498160764E-016
   17.1270750000000         3.829611495590087E-016
   17.2401250000000         3.889346208099705E-016
   17.3531750000000         3.949545323782423E-016
   17.4662250000000         4.010219678248338E-016
   17.5792750000000         4.071381141219562E-016
   17.6923250000000         4.133042542665676E-016
   17.8053750000000         4.195217597676290E-016
   17.9184250000000         4.257920866093260E-016
   18.0314750000000         4.321167596635431E-016
   18.1445250000000         4.384973661748237E-016
   18.2575750000000         4.449355405919907E-016
   18.3706250000000         4.514329499676011E-016
   18.4836750000000         4.579912833818898E-016
   18.5967250000000         4.646122387600893E-016
   18.7097750000000         4.712975057674597E-016
   18.8228250000000         4.780487486988082E-016
   18.9358750000000         4.848675954704411E-016
   19.0489250000000         4.917556199559634E-016
   19.1619750000000         4.987143326345108E-016
   19.2750250000000         5.057451604188904E-016
   19.3880750000000         5.128494455246531E-016
   19.5011250000000         5.200284320211205E-016
   19.6141750000000         5.272832586085417E-016
   19.7272250000000         5.346149582822966E-016
   19.8402750000000         5.420244576846288E-016
   19.9533250000000         5.495125776459970E-016
   20.0663750000000         5.570800426390333E-016
   20.1794250000000         5.647274869700263E-016
   20.2924750000000         5.724554692915652E-016
   20.4055250000000         5.802644818434236E-016
   20.5185750000000         5.881549719660386E-016
   20.6316250000000         5.961273529688005E-016
   20.7446750000000         6.041820269107396E-016
   20.8577250000000         6.123194034398195E-016
   20.9707750000000         6.205399111880257E-016
   21.0838250000000         6.288440204705048E-016
   21.1968750000000         6.372322553228008E-016
   21.3099250000000         6.457052067765661E-016
   21.4229750000000         6.542635413758671E-016
   21.5360250000000         6.629080104102087E-016
   21.6490750000000         6.716394522393047E-016
   21.7621250000000         6.804587922824957E-016
   21.8751750000000         6.893670432019560E-016
   21.9882250000000         6.983653009504660E-016
   22.1012750000000         7.074547357107336E-016
   22.2143250000000         7.166365835847317E-016
   22.3273750000000         7.259121397963985E-016
   22.4404250000000         7.352827424794333E-016
   22.5534750000000         7.447497628370691E-016
   22.6665250000000         7.543145931611468E-016
   22.7795750000000         7.639786394769937E-016
   22.8926250000000         7.737433111168642E-016
   23.0056750000000         7.836100097504227E-016
   23.1187250000000         7.935801261171703E-016
   23.2317750000000         8.036550316874553E-016
   23.3448250000000         8.138360753159217E-016
   23.4578750000000         8.241245830512717E-016
   23.5709250000000         8.345218556155354E-016
   23.6839750000000         8.450291685317978E-016
   23.7970250000000         8.556477694748483E-016
   23.9100750000000         8.663788832121310E-016
   24.0231250000000         8.772237075429086E-016
   24.1361750000000         8.881834120268461E-016
   24.2492250000000         8.992591406188851E-016
   24.3622750000000         9.104520042524396E-016
   24.4753250000000         9.217630802979043E-016
   24.5883750000000         9.331934031670429E-016
   24.7014250000000         9.447439624071768E-016
   24.8144750000000         9.564156927815662E-016
   24.9275250000000         9.682094650811719E-016
   25.0405750000000         9.801260771132749E-016
   25.1536250000000         9.921662470411462E-016
   25.2666750000000         1.004330602843294E-015
   25.3797250000000         1.016619675404400E-015
   25.4927750000000         1.029033890603554E-015
   25.6058250000000         1.041573562719437E-015
   25.7188750000000         1.054238895203436E-015
   25.8319250000000         1.067029977596607E-015
   25.9449750000000         1.079946786298565E-015
   26.0580250000000         1.092989186203286E-015
   26.1710750000000         1.106156938377800E-015
   26.2841250000000         1.119449706968681E-015
   26.3971750000000         1.132867071279166E-015
   26.5102250000000         1.146408535163759E-015
   26.6232750000000         1.160073542520271E-015
   26.7363250000000         1.173861487648604E-015
   26.8493750000000         1.187771733148547E-015
   26.9624250000000         1.201803626520024E-015
   27.0754750000000         1.215956510263223E-015
   27.1885250000000         1.230229740365595E-015
   27.3015750000000         1.244622694466862E-015
   27.4146250000000         1.259134791143325E-015
   27.5276750000000         1.273765494944122E-015
   27.6407250000000         1.288514326953015E-015
   27.7537750000000         1.303380872190227E-015
   27.8668250000000         1.318364786100970E-015
   27.9798750000000         1.333465799309581E-015
   28.0929250000000         1.348683720868387E-015
   28.2059750000000         1.364018442061338E-015
   28.3190250000000         1.379469934141738E-015
   28.4320750000000         1.395038247708704E-015
   28.5451250000000         1.410723518540394E-015
   28.6581750000000         1.426525959708813E-015
   28.7712250000000         1.442445864343933E-015
   28.8842750000000         1.458483601288915E-015
   28.9973250000000         1.474639615903752E-015
   29.1103750000000         1.490914421150362E-015
   29.2234250000000         1.507308598559985E-015
   29.3364750000000         1.523822794491748E-015
   29.4495250000000         1.540457716855561E-015
   29.5625750000000         1.557214127873205E-015
   29.6756250000000         1.574092843094993E-015
   29.7886750000000         1.591094721489026E-015
   29.9017250000000         1.608220661143217E-015
   30.0147750000000         1.625471591961961E-015
   30.1278250000000         1.642848468906113E-015
   30.2408750000000         1.660352260796116E-015
   30.3539250000000         1.677983944453780E-015
   30.4669750000000         1.695744495976233E-015
   30.5800250000000         1.713634883572311E-015
   30.6930750000000         1.731656057554573E-015
   30.8061250000000         1.749808938713690E-015
   30.9191750000000         1.768094412692351E-015
   31.0322250000000         1.786513324263699E-015
   31.1452750000000         1.805066467777861E-015
   31.2583250000000         1.823754586719387E-015
   31.3713750000000         1.842578362507182E-015
   31.4844250000000         1.861538418811265E-015
   31.5974750000000         1.880635313836205E-015
   31.7105250000000         1.899869541818864E-015
   31.8235750000000         1.919241536477903E-015
   31.9366250000000         1.938751667900440E-015
   32.0496750000000         1.958400250263937E-015
   32.1627250000000         1.978187544825748E-015
   32.2757750000000         1.998113766595498E-015
   32.3888250000000         2.018179090063664E-015
   32.5018750000000         2.038383656585680E-015
   32.6149250000000         2.058727585488386E-015
   32.7279750000000         2.079210984238683E-015
   32.8410250000000         2.099833956307275E-015
   32.9540750000000         2.120596616047283E-015
   33.0671250000000         2.141499098758554E-015
   33.1801750000000         2.162541572028132E-015
   33.2932250000000         2.183724252852548E-015
   33.4062750000000         2.205047420556277E-015
   33.5193250000000         2.226511429314684E-015
   33.6323750000000         2.248116721735145E-015
   33.7454250000000         2.269863840277058E-015
   33.8584750000000         2.291753441922871E-015
   33.9715250000000         2.313786310343045E-015
   34.0845750000000         2.335963360634753E-015
   34.1976250000000         2.358285652808372E-015
   34.3106750000000         2.380754394873944E-015
   34.4237250000000         2.403370949023470E-015
   34.5367750000000         2.426136827457313E-015
   34.6498250000000         2.449053697430500E-015
   34.7628750000000         2.472123371503545E-015
   34.8759250000000         2.495347802376121E-015
   34.9889750000000         2.518729074111309E-015
   35.1020250000000         2.542269388025905E-015
   35.2150750000000         2.565971046146915E-015
   35.3281250000000         2.589836435814254E-015
   35.4411750000000         2.613868010490855E-015
   35.5542250000000         2.638068272515927E-015
   35.6672750000000         2.662439752400517E-015
   35.7803250000000         2.686984988755040E-015
   35.8933750000000         2.711706511709095E-015
   36.0064250000000         2.736606825090369E-015
   36.1194750000000         2.761688396195042E-015
   36.2325250000000         2.786953641699548E-015
   36.3455750000000         2.812404921257767E-015
   36.4586250000000         2.838044530294450E-015
   36.5716750000000         2.863874703342647E-015
   36.6847250000000         2.889897614304757E-015
   36.7977750000000         2.916115382368750E-015
   36.9108250000000         2.942530081806422E-015
   37.0238750000000         2.969143750010394E-015
   37.1369250000000         2.995958405724438E-015
   37.2499750000000         3.022976058362899E-015
   37.3630250000000         3.050198725105848E-015
   37.4760750000000         3.077628442648488E-015
   37.5891250000000         3.105267280573136E-015
   37.7021750000000         3.133117350631808E-015
   37.8152250000000         3.161180817180293E-015
   37.9282750000000         3.189459895150180E-015
   38.0413250000000         3.217956851172665E-015
   38.1543750000000         3.246674003533640E-015
   38.2674250000000         3.275613707466694E-015
   38.3804750000000         3.304778345002878E-015
   38.4935250000000         3.334170305921634E-015
   38.6065750000000         3.363791970204849E-015
   38.7196250000000         3.393645681569618E-015
   38.8326750000000         3.423733725198829E-015
   38.9457250000000         3.454058297882680E-015
   39.0587750000000         3.484621483127542E-015
   39.1718250000000         3.515425225309854E-015
   39.2848750000000         3.546471303580055E-015
   39.3979250000000         3.577761309789773E-015
   39.5109750000000         3.609296631107811E-015
   39.6240250000000         3.641078435467342E-015
   39.7370750000000         3.673107659480428E-015
   39.8501250000000         3.705385005019108E-015
   39.9631750000000         3.737910937652154E-015
   40.0762250000000         3.770685692601936E-015
   40.1892750000000         3.803709284489748E-015
   40.3023250000000         3.836981524006622E-015
   40.4153750000000         3.870502033997742E-015
   40.5284250000000         3.904270271913084E-015
   40.6414750000000         3.938285559318730E-015
   40.7545250000000         3.972547109982943E-015
   40.8675750000000         4.007054057898420E-015
   40.9806250000000         4.041805490189948E-015
   41.0936750000000         4.076800478085947E-015
   41.2067250000000         4.112038107922433E-015
   41.3197750000000         4.147517510067515E-015
   41.4328250000000         4.183237888080655E-015
   41.5458750000000         4.219198543512194E-015
   41.6589250000000         4.255398901770705E-015
   41.7719750000000         4.291838532047900E-015
   41.8850250000000         4.328517165482153E-015
   41.9980750000000         4.365434710497493E-015
   42.1111250000000         4.402591265217153E-015
   42.2241750000000         4.439987123728761E-015
   42.3372250000000         4.477622785394821E-015
   42.4502750000000         4.515498957426555E-015
   42.5633250000000         4.553616554602070E-015
   42.6763750000000         4.591976699094415E-015
   42.7894250000000         4.630580708663500E-015
   42.9024750000000         4.669430099635701E-015
   43.0155250000000         4.708526569019674E-015
   43.1285750000000         4.747871989463357E-015
   43.2416250000000         4.787468387879360E-015
   43.3546750000000         4.827317933558387E-015
   43.4677250000000         4.867422914704501E-015
   43.5807750000000         4.907785723270817E-015
   43.6938250000000         4.948408826856412E-015
   43.8068750000000         4.989294745624911E-015
   43.9199250000000         5.030446023853148E-015
   44.0329750000000         5.071865201443962E-015
   44.1460250000000         5.113554785023881E-015
   44.2590750000000         5.155517215989232E-015
   44.3721250000000         5.197754840686911E-015
   44.4851750000000         5.240269878789193E-015
   44.5982250000000         5.283064393222569E-015
   44.7112750000000         5.326140259443853E-015
   44.8243250000000         5.369499141854472E-015
   44.9373750000000         5.413142463453998E-015
   45.0504250000000         5.457071390135488E-015
   45.1634750000000         5.501286809584279E-015
   45.2765250000000         5.545789322517773E-015
   45.3895750000000         5.590579229265624E-015
   45.5026250000000         5.635656532523353E-015
   45.6156750000000         5.681020938085950E-015
   45.7287250000000         5.726671862328448E-015
   45.8417750000000         5.772608448882293E-015
   45.9548250000000         5.818829587014606E-015
   46.0678750000000         5.865333936438051E-015
   46.1809250000000         5.912119962133733E-015
   46.2939750000000         5.959185972902100E-015
   46.4070250000000         6.006530152021519E-015
   46.5200750000000         6.054150600154624E-015
   46.6331250000000         6.102045390934798E-015
   46.7461750000000         6.150212606923594E-015
   46.8592250000000         6.198650388141272E-015
   46.9722750000000         6.247356983566328E-015
   47.0853250000000         6.296330792379507E-015
   47.1983750000000         6.345570406273539E-015
   47.3114250000000         6.395074652335582E-015
   47.4244750000000         6.444842628589209E-015
   47.5375250000000         6.494873733932035E-015
   47.6505750000000         6.545167698099178E-015
   47.7636250000000         6.595724600359801E-015
   47.8766750000000         6.646544886743253E-015
   47.9897250000000         6.697629380415798E-015
   48.1027750000000         6.748979286252973E-015
   48.2158250000000         6.800596191780680E-015
   48.3288750000000         6.852482057918568E-015
   48.4419250000000         6.904639211150228E-015
   48.5549750000000         6.957070325339784E-015
   48.6680250000000         7.009778402865232E-015
   48.7810750000000         7.062766752449501E-015
   48.8941250000000         7.116038958333565E-015
   49.0071750000000         7.169598860060064E-015
   49.1202250000000         7.223450512086692E-015
   49.2332750000000         7.277598158676525E-015
   49.3463250000000         7.332046196869239E-015
   49.4593750000000         7.386799146362273E-015
   49.5724250000000         7.441861616247261E-015
   49.6854750000000         7.497238271785206E-015
   49.7985250000000         7.552933803241859E-015
   49.9115750000000         7.608952896567857E-015
   50.0246250000000         7.665300205847958E-015
   50.1376750000000         7.721980325301500E-015
   50.2507250000000         7.778997768026302E-015
   50.3637750000000         7.836356944340588E-015
   50.4768250000000         7.894062139039826E-015
   50.5898750000000         7.952117498609111E-015
   50.7029250000000         8.010527015684821E-015
   50.8159750000000         8.069294516739019E-015
   50.9290250000000         8.128423657822716E-015
   51.0420750000000         8.187917914579106E-015
   51.1551250000000         8.247780578340921E-015
   51.2681750000000         8.308014759033999E-015
   51.3812250000000         8.368623388867103E-015
   51.4942750000000         8.429609221111301E-015
   51.6073250000000         8.490974841838494E-015
   51.7203750000000         8.552722677513936E-015
   51.8334250000000         8.614855006706183E-015
   51.9464750000000         8.677373968919731E-015
   52.0595250000000         8.740281579408431E-015
   52.1725750000000         8.803579740959257E-015
   52.2856250000000         8.867270259859135E-015
   52.3986750000000         8.931354858946224E-015
   52.5117250000000         8.995835186780790E-015
   52.6247750000000         9.060712831836560E-015
   52.7378250000000         9.125989333560292E-015
   52.8508750000000         9.191666187049232E-015
   52.9639250000000         9.257744851405041E-015
   53.0769750000000         9.324226754393248E-015
   53.1900250000000         9.391113291233758E-015
   53.3030750000000         9.458405826931178E-015
   53.4161250000000         9.526105695686537E-015
   53.5291750000000         9.594214192860788E-015
   53.6422250000000         9.662732574521473E-015
   53.7552750000000         9.731662047787616E-015
   53.8683250000000         9.801003769458888E-015
   53.9813750000000         9.870758836641626E-015
   54.0944250000000         9.940928281280312E-015
   54.2074750000000         1.001151306866690E-014
   54.3205250000000         1.008251409202254E-014
   54.4335750000000         1.015393217841564E-014
   54.5466250000000         1.022576808610131E-014
   54.6596750000000         1.029802251031146E-014
   54.7727250000000         1.037069609313693E-014
   54.8857750000000         1.044378943297001E-014
   54.9988250000000         1.051730310001335E-014
   55.1118750000000         1.059123764783718E-014
   55.2249250000000         1.066559363143171E-014
   55.3379750000000         1.074037162592414E-014
   55.4510250000000         1.081557224468183E-014
   55.5640750000000         1.089119616177711E-014
   55.6771250000000         1.096724412324668E-014
   55.7901750000000         1.104371696846592E-014
   55.9032250000000         1.112061564228425E-014
   56.0162750000000         1.119794120875371E-014
   56.1293250000000         1.127569486023771E-014
   56.2423750000000         1.135387792297525E-014
   56.3554250000000         1.143249186281897E-014
   56.4684750000000         1.151153828385860E-014
   56.5815250000000         1.159101892551719E-014
   56.6945750000000         1.167093565557186E-014
   56.8076250000000         1.175129046075965E-014
   56.9206750000000         1.183208543945206E-014
   57.0337250000000         1.191332278991362E-014
   57.1467750000000         1.199500479093042E-014
   57.2598250000000         1.207713379280143E-014
   57.3728750000000         1.215971219928763E-014
   57.4859250000000         1.224274245156890E-014
   57.5989750000000         1.232622701758250E-014
   57.7120250000000         1.241016837077757E-014
   57.8250750000000         1.249456898007314E-014
   57.9381250000000         1.257943128949338E-014
   58.0511750000000         1.266475770040574E-014
   58.1642250000000         1.275055055771391E-014
   58.2772750000000         1.283681212711835E-014
   58.3903250000000         1.292354457538059E-014
   58.5033750000000         1.301074994162729E-014
   58.6164250000000         1.309843011599175E-014
   58.7294750000000         1.318658681118172E-014
   58.8425250000000         1.327522152805825E-014
   58.9555750000000         1.336433552644108E-014
   59.0686250000000         1.345392979233298E-014
   59.1816750000000         1.354400500408885E-014
   59.2947250000000         1.363456150145890E-014
   59.4077750000000         1.372559925824235E-014
   59.5208250000000         1.381711786155525E-014
   59.6338750000000         1.390911649710114E-014
   59.7469250000000         1.400159394486721E-014
   59.8599750000000         1.409454857990149E-014
   59.9730250000000         1.418797839725475E-014
   60.0860750000000         1.428188104391048E-014
   60.1991250000000         1.437625386868217E-014
   60.3121750000000         1.447109399033755E-014
   60.4252250000000         1.456639837426440E-014
   60.5382750000000         1.466216393322290E-014
   60.6513250000000         1.475838763926749E-014
   60.7643750000000         1.485506664554734E-014
   60.8774250000000         1.495219841629046E-014
   60.9904750000000         1.504978086500546E-014
   61.1035250000000         1.514781249100693E-014
   61.2165750000000         1.524629250519472E-014
   61.3296250000000         1.534522095083499E-014
   61.4426750000000         1.544459880823255E-014
   61.5557250000000         1.554442807343217E-014
   61.6687750000000         1.564471181023398E-014
   61.7818250000000         1.574545416951958E-014
   61.8948750000000         1.584666037515604E-014
   62.0079250000000         1.594833666437884E-014
   62.1209750000000         1.605049019511180E-014
   62.2340250000000         1.615312890845765E-014
   62.3470750000000         1.625626134846986E-014
   62.4601250000000         1.635989645212218E-014
   62.5731750000000         1.646404330660420E-014
   62.6862250000000         1.656871088413773E-014
   62.7992750000000         1.667390776342426E-014
   62.9123250000000         1.677964184258735E-014
   63.0253750000000         1.688592006838367E-014
   63.1384250000000         1.699274817864358E-014
   63.2514750000000         1.710013047584868E-014
   63.3645250000000         1.720806965610327E-014
   63.4775750000000         1.731656668368383E-014
   63.5906250000000         1.742562074673187E-014
   63.7036750000000         1.753522927853942E-014
   63.8167250000000         1.764538806416358E-014
   63.9297750000000         1.775609144353741E-014
   64.0428250000000         1.786733259062874E-014
   64.1558750000000         1.797910387997957E-014
   64.2689250000000         1.809139733854895E-014
   64.3819750000000         1.820420514725629E-014
   64.4950250000000         1.831752020667199E-014
   64.6080750000000         1.843133672397505E-014
   64.7211250000000         1.854565081247694E-014
   64.8341750000000         1.866046107299727E-014
   64.9472250000000         1.877576913417012E-014
   65.0602750000000         1.889158011761000E-014
   65.1733250000000         1.900790300541674E-014
   65.2863750000000         1.912475087772782E-014
   65.3994250000000         1.924214100283692E-014
   65.5124750000000         1.936009475893400E-014