 -0.847875000000000        -2.203702766512333E-024
 -0.734825000000000        -7.574419349131384E-024
 -0.621775000000000        -2.241463927324684E-023
 -0.508725000000000        -8.507200459402202E-023
 -0.395675000000000        -3.285892447296976E-022
 -0.282625000000000        -1.123371336778679E-021
 -0.169575000000000        -3.313766928591822E-021
 -5.652500000000005E-002   -8.481897656224010E-021
  5.652499999999994E-002   -1.883011670908986E-020
  0.169575000000000        -3.683300971330534E-020
  0.282625000000000        -6.320612911756944E-020
  0.395675000000000        -9.493736502297629E-020
  0.508725000000000        -1.238443100174691E-019
  0.621775000000000        -1.319346757075406E-019
  0.734825000000000        -8.707398389469457E-020
  0.847875000000000         5.290446206890411E-020
  0.960925000000000         3.438625597759589E-019
   1.07397500000000         8.624667158396803E-019
   1.18702500000000         1.698814065439365E-018
   1.30007500000000         2.952899786363380E-018
   1.41312500000000         4.733740042582850E-018
   1.52617500000000         7.157661682574308E-018
   1.63922500000000         1.033757933876758E-017
   1.75227500000000         1.438427866557510E-017
   1.86532500000000         1.937112685836272E-017
   1.97837500000000         2.533766824509379E-017
   2.09142500000000         3.229906633125997E-017
   2.20447500000000         4.019565506703388E-017
   2.31752500000000         4.890801615629257E-017
   2.43057500000000         5.821740140111421E-017
   2.54362500000000         6.779432352998610E-017
   2.65667500000000         7.719486590924511E-017
   2.76972500000000         8.587387567719742E-017
   2.88277500000000         9.315254146822341E-017
   2.99582500000000         9.822575917764152E-017
   3.10887500000000         1.001578888538172E-016
   3.22192500000000         9.789015678069122E-017
   3.33497500000000         9.025158171281663E-017
   3.44802500000000         7.599088648334479E-017
   3.56107500000000         5.385089304898666E-017
   3.67412500000000         2.246207911479376E-017
   3.78717500000000        -1.953559908842438E-017
   3.90022500000000        -7.340575429666819E-017
   4.01327500000000        -1.403827383456576E-016
   4.12632500000000        -2.216438462978270E-016
   4.23937500000000        -3.181835170772395E-016
   4.35242500000000        -4.307980908568914E-016
   4.46547500000000        -5.601156693610488E-016
   4.57852500000000        -7.065224523213962E-016
   4.69157500000000        -8.701588548466602E-016
   4.80462500000000        -1.050902259226352E-015
   4.91767500000000        -1.248343275365383E-015
   5.03072500000000        -1.461839485335146E-015
   5.14377500000000        -1.690505155341155E-015
   5.25682500000000        -1.933226950475867E-015
   5.36987500000000        -2.188668551691616E-015
   5.48292500000000        -2.455314288716849E-015
   5.59597500000000        -2.731551501002075E-015
   5.70902500000000        -3.015655684325711E-015
   5.82207500000000        -3.305890136931063E-015
   5.93512500000000        -3.600490399768588E-015
   6.04817500000000        -3.897727419344795E-015
   6.16122500000000        -4.196007546423043E-015
   6.27427500000000        -4.493867867615763E-015
   6.38732500000000        -4.789974204367000E-015
   6.50037500000000        -5.083100698353088E-015
   6.61342500000000        -5.372322509914675E-015
   6.72647500000000        -5.656920138071145E-015
   6.83952500000000        -5.936298333999459E-015
   6.95257500000000        -6.210111272908198E-015
   7.06562500000000        -6.478204063966207E-015
   7.17867500000000        -6.740585073626309E-015
   7.29172500000000        -6.997401718893380E-015
   7.40477500000000        -7.248903775552095E-015
   7.51782500000000        -7.495401019333486E-015
   7.63087500000000        -7.737228889197870E-015
   7.74392500000000        -7.974781119413672E-015
   7.85697500000000        -8.208451979340700E-015
   7.97002500000000        -8.438566080887160E-015
   8.08307500000000        -8.665405200429897E-015
   8.19612500000000        -8.889139176127771E-015
   8.30917500000000        -9.109819811388690E-015
   8.42222500000000        -9.327458229435090E-015
   8.53527500000000        -9.541940976360008E-015
   8.64832500000000        -9.753066337161566E-015
   8.76137500000000        -9.960578641146994E-015
   8.87442500000000        -1.016412122570484E-014
   8.98747500000000        -1.036331654522305E-014
   9.10052500000000        -1.055774190075738E-014
   9.21357500000000        -1.074698601917403E-014
   9.32662500000000        -1.093067087477245E-014
   9.43967500000000        -1.110843247849986E-014
   9.55272500000000        -1.127998797145168E-014
   9.66577500000000        -1.144513467390272E-014
   9.77882500000000        -1.160376322453432E-014
   9.89187500000000        -1.175587384540775E-014
   10.0049250000000        -1.190155952975970E-014
   10.1179750000000        -1.204104059500925E-014
   10.2310250000000        -1.217465875196537E-014
   10.3440750000000        -1.230288696966154E-014
   10.4571250000000        -1.242631627156420E-014
   10.5701750000000        -1.254561358404083E-014
   10.6832250000000        -1.266158479010244E-014
   10.7962750000000        -1.277511538509324E-014
   10.9093250000000        -1.288715389812318E-014
   11.0223750000000        -1.299873997736378E-014
   11.1354250000000        -1.311097404592396E-014
   11.2484750000000        -1.322496170559549E-014
   11.3615250000000        -1.334181837438782E-014
   11.4745750000000        -1.346269976410955E-014
   11.5876250000000        -1.358873319735961E-014
   11.7006750000000        -1.372101289474799E-014
   11.8137250000000        -1.386054626055597E-014
   11.9267750000000        -1.400824882200522E-014
   12.0398250000000        -1.416494446125239E-014
   12.1528750000000        -1.433130354205733E-014
   12.2659250000000        -1.450785703992226E-014
   12.3789750000000        -1.469494602811912E-014
   12.4920250000000        -1.489271871677313E-014
   12.6050750000000        -1.510110086182974E-014
   12.7181250000000        -1.531980609252608E-014
   12.8311750000000        -1.554828665289601E-014
   12.9442250000000        -1.578570559560986E-014
   13.0572750000000        -1.603101622386743E-014
   13.1703250000000        -1.628296074127651E-014
   13.2833750000000        -1.654009359256462E-014
   13.3964250000000        -1.680074269753876E-014
   13.5094750000000        -1.706309124244633E-014
   13.6225250000000        -1.732522430203664E-014
   13.7355750000000        -1.758511057539810E-014
   13.8486250000000        -1.784074652951375E-014
   13.9616750000000        -1.809014029566248E-014
   14.0747250000000        -1.833133148053537E-014
   14.1877750000000        -1.856255804513315E-014
   14.3008250000000        -1.878223503448386E-014
   14.4138750000000        -1.898899260485192E-014
   14.5269250000000        -1.918166935244532E-014
   14.6399750000000        -1.935943280690282E-014
   14.7530250000000        -1.952178960804098E-014
   14.8660750000000        -1.966849273247327E-014
   14.9791250000000        -1.979967393925941E-014
   15.0921750000000        -1.991574271342193E-014
   15.2052250000000        -2.001736376918645E-014
   15.3182750000000        -2.010548418284167E-014
   15.4313250000000        -2.018129059297838E-014
   15.5443750000000        -2.024613763998077E-014
   15.6574250000000        -2.030149091146412E-014
   15.7704750000000        -2.034893048293219E-014
   15.8835250000000        -2.039009090999903E-014
   15.9965750000000        -2.042660046619863E-014
   16.1096250000000        -2.046008039305770E-014
   16.2226750000000        -2.049208607792969E-014
   16.3357250000000        -2.052407665610736E-014
   16.4487750000000        -2.055744673503655E-014
   16.5618250000000        -2.059351088850555E-014
   16.6748750000000        -2.063345235981969E-014
   16.7879250000000        -2.067834650476462E-014
   16.9009750000000        -2.072923383362950E-014
   17.0140250000000        -2.078712796648919E-014
   17.1270750000000        -2.085298079492768E-014
   17.2401250000000        -2.092765992163899E-014
   17.3531750000000        -2.101213404515859E-014
   17.4662250000000        -2.110734994821421E-014
   17.5792750000000        -2.121423064868573E-014
   17.6923250000000        -2.133373499999605E-014
   17.8053750000000        -2.146675731291975E-014
   17.9184250000000        -2.161422805116875E-014
   18.0314750000000        -2.177704565387591E-014
   18.1445250000000        -2.195597715688339E-014
   18.2575750000000        -2.215165823232391E-014
   18.3706250000000        -2.236455028246812E-014
   18.4836750000000        -2.259492167354699E-014
   18.5967250000000        -2.284278277037193E-014
   18.7097750000000        -2.310780615869520E-014
   18.8228250000000        -2.338934532886152E-014
   18.9358750000000        -2.368639466756697E-014
   19.0489250000000        -2.399758537460490E-014
   19.1619750000000        -2.432117389708952E-014
   19.2750250000000        -2.465511057445385E-014
   19.3880750000000        -2.499702247291437E-014
   19.5011250000000        -2.534422486780671E-014
   19.6141750000000        -2.569386347595846E-014
   19.7272250000000        -2.604294036497913E-014
   19.8402750000000        -2.638845145627772E-014
   19.9533250000000        -2.672746613852248E-014
   20.0663750000000        -2.705709708363263E-014
   20.1794250000000        -2.737468691443648E-014
   20.2924750000000        -2.767793353408426E-014
   20.4055250000000        -2.796490682980375E-014
   20.5185750000000        -2.823411394671979E-014
   20.6316250000000        -2.848454049544729E-014
   20.7446750000000        -2.871573243081789E-014
   20.8577250000000        -2.892779225462256E-014
   20.9707750000000        -2.912135878952270E-014
   21.0838250000000        -2.929759406714357E-014
   21.1968750000000        -2.945811998821895E-014
   21.3099250000000        -2.960505619125764E-014
   21.4229750000000        -2.974087990829223E-014
   21.5360250000000        -2.986829411314744E-014
   21.6490750000000        -2.999025893257682E-014
   21.7621250000000        -3.010985452083512E-014
   21.8751750000000        -3.023020256563105E-014
   21.9882250000000        -3.035437174304959E-014
   22.1012750000000        -3.048531125382182E-014
   22.2143250000000        -3.062579573397596E-014
   22.3273750000000        -3.077832885945184E-014
   22.4404250000000        -3.094512062850124E-014
   22.5534750000000        -3.112805944352775E-014
   22.6665250000000        -3.132871656296787E-014
   22.7795750000000        -3.154830039053258E-014
   22.8926250000000        -3.178770401859535E-014
   23.0056750000000        -3.204748889849629E-014
   23.1187250000000        -3.232791926827414E-014
   23.2317750000000        -3.262900709440029E-014
   23.3448250000000        -3.295050018997654E-014
   23.4578750000000        -3.329196136122864E-014
   23.5709250000000        -3.365277828118474E-014
   23.6839750000000        -3.403215872492719E-014
   23.7970250000000        -3.442919417121734E-014
   23.9100750000000        -3.484286618868473E-014
   24.0231250000000        -3.527202687415801E-014
   24.1361750000000        -3.571548572253600E-014
   24.2492250000000        -3.617193488859687E-014
   24.3622750000000        -3.663995025902952E-014
   24.4753250000000        -3.711801066949104E-014
   24.5883750000000        -3.760446518738760E-014
   24.7014250000000        -3.809754050686520E-014
   24.8144750000000        -3.859534253256324E-014
   24.9275250000000        -3.909586167264602E-014
   25.0405750000000        -3.959696561918033E-014
   25.1536250000000        -4.009644121718702E-014
   25.2666750000000        -4.059199411639046E-014
   25.3797250000000        -4.108129986948832E-014
   25.4927750000000        -4.156199866828294E-014
   25.6058250000000        -4.203175719527702E-014
   25.7188750000000        -4.248835938742937E-014
   25.8319250000000        -4.292974052619608E-014
   25.9449750000000        -4.335397552921452E-014
   26.0580250000000        -4.375939047315593E-014
   26.1710750000000        -4.414463153715902E-014
   26.2841250000000        -4.450862452757100E-014
   26.3971750000000        -4.485066934533241E-014
   26.5102250000000        -4.517047488345683E-014
   26.6232750000000        -4.546812816241991E-014
   26.7363250000000        -4.574408718849648E-014
   26.8493750000000        -4.599927423634527E-014
   26.9624250000000        -4.623496683842025E-014
   27.0754750000000        -4.645275959039655E-014
   27.1885250000000        -4.665455989836063E-014
   27.3015750000000        -4.684252326336153E-014
   27.4146250000000        -4.701906937936865E-014
   27.5276750000000        -4.718676500642165E-014
   27.6407250000000        -4.734824487921359E-014
   27.7537750000000        -4.750615629161653E-014
   27.8668250000000        -4.766312934343215E-014
   27.9798750000000        -4.782176123617428E-014
   28.0929250000000        -4.798448772259000E-014
   28.2059750000000        -4.815358990057473E-014
   28.3190250000000        -4.833113755804540E-014
   28.4320750000000        -4.851897198869316E-014
   28.5451250000000        -4.871868724350395E-014
   28.6581750000000        -4.893160158551285E-014
   28.7712250000000        -4.915878875034168E-014
   28.8842750000000        -4.940103668310500E-014
   28.9973250000000        -4.965883238043337E-014
   29.1103750000000        -4.993242068392630E-014
   29.2234250000000        -5.022183433437200E-014
   29.3364750000000        -5.052688108337298E-014
   29.4495250000000        -5.084712983499266E-014
   29.5625750000000        -5.118194262530343E-014
   29.6756250000000        -5.153052695176475E-014
   29.7886750000000        -5.189194083901759E-014
   29.9017250000000        -5.226511619294904E-014
   30.0147750000000        -5.264883856306268E-014
   30.1278250000000        -5.304183039831535E-014
   30.2408750000000        -5.344274900656305E-014
   30.3539250000000        -5.385017609361309E-014
   30.4669750000000        -5.426266992130179E-014
   30.5800250000000        -5.467878305350857E-014
   30.6930750000000        -5.509705931731482E-014
   30.8061250000000        -5.551605103711249E-014
   30.9191750000000        -5.593435402993430E-014
   31.0322250000000        -5.635062650402036E-014
   31.1452750000000        -5.676361155488675E-014
   31.2583250000000        -5.717212234437523E-014
   31.3713750000000        -5.757508049866174E-014
   31.4844250000000        -5.797154801244846E-014
   31.5974750000000        -5.836067612552044E-014
   31.7105250000000        -5.874173968665372E-014
   31.8235750000000        -5.911415791958864E-014
   31.9366250000000        -5.947750517827848E-014
   32.0496750000000        -5.983150490358659E-014
   32.1627250000000        -6.017600580886308E-014
   32.2757750000000        -6.051099202209324E-014
   32.3888250000000        -6.083656577883531E-014
   32.5018750000000        -6.115295232355270E-014
   32.6149250000000        -6.146047813036199E-014
   32.7279750000000        -6.175960032199630E-014
   32.8410250000000        -6.205086303583418E-014
   32.9540750000000        -6.233490728663116E-014
   33.0671250000000        -6.261249079375638E-014
   33.1801750000000        -6.288437157094375E-014
   33.2932250000000        -6.315137884903796E-014
   33.4062750000000        -6.341446765444556E-014
   33.5193250000000        -6.367460320247947E-014
   33.6323750000000        -6.393276211838204E-014
   33.7454250000000        -6.418999896548344E-014
   33.8584750000000        -6.444739626911363E-014
   33.9715250000000        -6.470602605252293E-014
   34.0845750000000        -6.496697250894351E-014
   34.1976250000000        -6.523132366786780E-014
   34.3106750000000        -6.550017017392569E-014
   34.4237250000000        -6.577451684028619E-014
   34.5367750000000        -6.605534929977675E-014
   34.6498250000000        -6.634361544827532E-014
   34.7628750000000        -6.664016589847686E-014
   34.8759250000000        -6.694581420521206E-014
   34.9889750000000        -6.726128072778864E-014
   35.1020250000000        -6.758716726378207E-014
   35.2150750000000        -6.792403186005781E-014
   35.3281250000000        -6.827233242122806E-014
   35.4411750000000        -6.863241148941152E-014
   35.5542250000000        -6.900458288525412E-014
   35.6672750000000        -6.938908089594951E-014
   35.7803250000000        -6.978609375701743E-014
   35.8933750000000        -7.019580982660266E-014
   36.0064250000000        -7.061838437518892E-014
   36.1194750000000        -7.105394561901896E-014
   36.2325250000000        -7.150266962304804E-014
   36.3455750000000        -7.196478010882646E-014
   36.4586250000000        -7.244047773164630E-014
   36.5716750000000        -7.292994402636825E-014
   36.6847250000000        -7.343339063063543E-014
   36.7977750000000        -7.395102080808326E-014
   36.9108250000000        -7.448300555471978E-014
   37.0238750000000        -7.502941848499960E-014
   37.1369250000000        -7.559020004396026E-014
   37.2499750000000        -7.616516302894265E-014
   37.3630250000000        -7.675389488872950E-014
   37.4760750000000        -7.735573206302445E-014
   37.5891250000000        -7.796976531675982E-014
   37.7021750000000        -7.859475115177296E-014
   37.8152250000000        -7.922914553915033E-014
   37.9282750000000        -7.987111141677790E-014
   38.0413250000000        -8.051845550024436E-014
   38.1543750000000        -8.116867483047819E-014
   38.2674250000000        -8.181905952044520E-014
   38.3804750000000        -8.246671541561405E-014
   38.4935250000000        -8.310862764247103E-014
   38.6065750000000        -8.374177122139327E-014
   38.7196250000000        -8.436318842034477E-014
   38.8326750000000        -8.497010962328400E-014
   38.9457250000000        -8.556008192831179E-014
   39.0587750000000        -8.613104392753420E-014
   39.1718250000000        -8.668143560161358E-014
   39.2848750000000        -8.721030370355456E-014
   39.3979250000000        -8.771734356654677E-014
   39.5109750000000        -8.820297464504020E-014
   39.6240250000000        -8.866836267250768E-014
   39.7370750000000        -8.911540266549743E-014
   39.8501250000000        -8.954669782531510E-014
   39.9631750000000        -8.996550281733431E-014
   40.0762250000000        -9.037561990880762E-014
   40.1892750000000        -9.078129460643897E-014
   40.3023250000000        -9.118709715104003E-014
   40.4153750000000        -9.159775017877588E-014
   40.5284250000000        -9.201796702184174E-014
   40.6414750000000        -9.245230878125956E-014
   40.7545250000000        -9.290500455983492E-014
   40.8675750000000        -9.337981835223376E-014
   40.9806250000000        -9.387986989366564E-014
   41.0936750000000        -9.440755004380445E-014
   41.2067250000000        -9.496446016141833E-014
   41.3197750000000        -9.555123200341496E-014
   41.4328250000000        -9.616762302614519E-014
   41.5458750000000        -9.681252680847045E-014
   41.6589250000000        -9.748392874999299E-014
   41.7719750000000        -9.817902045011969E-014
   41.8850250000000        -9.889431589616330E-014
   41.9980750000000        -9.962579771139410E-014
   42.1111250000000        -1.003689754651446E-013
   42.2241750000000        -1.011190842539734E-013
   42.3372250000000        -1.018712963944616E-013
   42.4502750000000        -1.026208323971977E-013
   42.5633250000000        -1.033631260808024E-013
   42.6763750000000        -1.040939379946287E-013
   42.7894250000000        -1.048094707599568E-013
   42.9024750000000        -1.055065053332438E-013
   43.0155250000000        -1.061824815042073E-013
   43.1285750000000        -1.068355058917434E-013
   43.2416250000000        -1.074643457585481E-013
   43.3546750000000        -1.080684674402482E-013
   43.4677250000000        -1.086479978086850E-013
   43.5807750000000        -1.092035949511136E-013
   43.6938250000000        -1.097364719343069E-013
   43.8068750000000        -1.102482714832337E-013
   43.9199250000000        -1.107408941480320E-013
   44.0329750000000        -1.112165285509966E-013
   44.1460250000000        -1.116775627337017E-013
   44.2590750000000        -1.121263744300376E-013
   44.3721250000000        -1.125652571350146E-013
   44.4851750000000        -1.129965493883636E-013
   44.5982250000000        -1.134224632989895E-013
   44.7112750000000        -1.138449296766427E-013
   44.8243250000000        -1.142657575330989E-013
   44.9373750000000        -1.146866377137527E-013
   45.0504250000000        -1.151090784950647E-013
   45.1634750000000        -1.155344476253966E-013
   45.2765250000000        -1.159639895803249E-013
   45.3895750000000        -1.163988500815598E-013
   45.5026250000000        -1.168401142917617E-013
   45.6156750000000        -1.172888753186508E-013
   45.7287250000000        -1.177462436347942E-013
   45.8417750000000        -1.182133397957100E-013
   45.9548250000000        -1.186912307727187E-013
   46.0678750000000        -1.191810340723730E-013
   46.1809250000000        -1.196839421252300E-013
   46.2939750000000        -1.202010388294128E-013
   46.4070250000000        -1.207333325717806E-013
   46.5200750000000        -1.212817960005530E-013
   46.6331250000000        -1.218472737192810E-013
   46.7461750000000        -1.224303664359376E-013
   46.8592250000000        -1.230315028943454E-013
   46.9722750000000        -1.236508984191331E-013
   47.0853250000000        -1.242884756038326E-013
   47.1983750000000        -1.249438653622020E-013
   47.3114250000000        -1.256164439829366E-013
   47.4244750000000        -1.263052724599947E-013
   47.5375250000000        -1.270091268781844E-013
   47.6505750000000        -1.277265922667832E-013
   47.7636250000000        -1.284559987476605E-013
   47.8766750000000        -1.291954980769553E-013
   47.9897250000000        -1.299431113197935E-013
   48.1027750000000        -1.306967945493375E-013
   48.2158250000000        -1.314545204190563E-013
   48.3288750000000        -1.322142480221069E-013
   48.4419250000000        -1.329740153073426E-013
   48.5549750000000        -1.337319815324614E-013
   48.6680250000000        -1.344864524994663E-013
   48.7810750000000        -1.352358820479078E-013
   48.8941250000000        -1.359789267973373E-013
   49.0071750000000        -1.367144572630270E-013
   49.1202250000000        -1.374415842554728E-013
   49.2332750000000        -1.381596005804348E-013
   49.3463250000000        -1.388679879406667E-013
   49.4593750000000        -1.395665744221332E-013
   49.5724250000000        -1.402552888467926E-013
   49.6854750000000        -1.409342363070058E-013
   49.7985250000000        -1.416038086525616E-013
   49.9115750000000        -1.422645304575251E-013
   50.0246250000000        -1.429171484160966E-013
   50.1376750000000        -1.435625457434728E-013
   50.2507250000000        -1.442018395614077E-013
   50.3637750000000        -1.448363333618193E-013
   50.4768250000000        -1.454674543083636E-013
   50.5898750000000        -1.460968584844522E-013
   50.7029250000000        -1.467263157566587E-013
   50.8159750000000        -1.473577367104612E-013
   50.9290250000000        -1.479931722991297E-013
   51.0420750000000        -1.486347716364813E-013
   51.1551250000000        -1.492847279493557E-013
   51.2681750000000        -1.499452225987628E-013
   51.3812250000000        -1.506183729145561E-013
   51.4942750000000        -1.513062025496392E-013
   51.6073250000000        -1.520106043969878E-013
   51.7203750000000        -1.527332823549210E-013
   51.8334250000000        -1.534756253733542E-013
   51.9464750000000        -1.542386752477229E-013
   52.0595250000000        -1.550230978478426E-013
   52.1725750000000        -1.558291999969827E-013
   52.2856250000000        -1.566568938216825E-013
   52.3986750000000        -1.575056146960209E-013
   52.5117250000000        -1.583744158932772E-013
   52.6247750000000        -1.592619386767307E-013
   52.7378250000000        -1.601664853779601E-013
   52.8508750000000        -1.610861069365940E-013
   52.9639250000000        -1.620186121084619E-013
   53.0769750000000        -1.629617057419871E-013
   53.1900250000000        -1.639130531554680E-013
   53.3030750000000        -1.648703533678055E-013
   53.4161250000000        -1.658314629517613E-013
   53.5291750000000        -1.667944833684854E-013
   53.6422250000000        -1.677578049133261E-013
   53.7552750000000        -1.687201654831741E-013
   53.8683250000000        -1.696806739507056E-013
   53.9813750000000        -1.706388663642278E-013
   54.0944250000000        -1.715947183109787E-013
   54.2074750000000        -1.725485837044149E-013
   54.3205250000000        -1.735011085568623E-013
   54.4335750000000        -1.744532515840868E-013
   54.5466250000000        -1.754061695714244E-013
   54.6596750000000        -1.763610491483147E-013
   54.7727250000000        -1.773191065834544E-013
   54.8857750000000        -1.782814645355944E-013
   54.9988250000000        -1.792489900381713E-013
   55.1118750000000        -1.802222054684170E-013
   55.2249250000000        -1.812012302989247E-013
   55.3379750000000        -1.821857136688351E-013
   55.4510250000000        -1.831748239485729E-013
   55.5640750000000        -1.841671657848500E-013
   55.6771250000000        -1.851608144658095E-013
   55.7901750000000        -1.861533984657016E-013
   55.9032250000000        -1.871421165373624E-013
   56.0162750000000        -1.881238276159597E-013
   56.1293250000000        -1.890951949746310E-013
   56.2423750000000        -1.900528442617536E-013
   56.3554250000000        -1.909935094126707E-013
   56.4684750000000        -1.919142012221027E-013
   56.5815250000000        -1.928123091084264E-013
   56.6945750000000        -1.936857772472726E-013
   56.8076250000000        -1.945333133561078E-013
   56.9206750000000        -1.953544829762474E-013
   57.0337250000000        -1.961497996666024E-013
   57.1467750000000        -1.969207354774397E-013
   57.2598250000000        -1.976698415691359E-013
   57.3728750000000        -1.984007629217191E-013
   57.4859250000000        -1.991181059196134E-013
   57.5989750000000        -1.998273713830082E-013
   57.7120250000000        -2.005348497643324E-013
   57.8250750000000        -2.012475138556084E-013
   57.9381250000000        -2.019727435104194E-013
   58.0511750000000        -2.027180949030101E-013
   58.1642250000000        -2.034910804891327E-013
   58.2772750000000        -2.042989072633578E-013
   58.3903250000000        -2.051482247812456E-013
   58.5033750000000        -2.060448562760601E-013
   58.6164250000000        -2.069935518842523E-013
   58.7294750000000        -2.079977533606708E-013
   58.8425250000000        -2.090593636978743E-013
   58.9555750000000        -2.101786366898078E-013
   59.0686250000000        -2.113540973919856E-013
   59.1816750000000        -2.125823998963280E-013
   59.2947250000000        -2.138583955668340E-013
   59.4077750000000        -2.151752321484673E-013
   59.5208250000000        -2.165244019908966E-013
   59.6338750000000        -2.178959588463368E-013
   59.7469250000000        -2.192787929981876E-013
   59.8599750000000        -2.206609391049602E-013
   59.9730250000000        -2.220299816950633E-013
   60.0860750000000        -2.233734036190270E-013
   60.1991250000000        -2.246790280522412E-013
   60.3121750000000        -2.259354607802782E-013
   60.4252250000000        -2.271325286530669E-013
   60.5382750000000        -2.282618206837328E-013
   60.6513250000000        -2.293170113645213E-013
   60.7643750000000        -2.302941278773814E-013
   60.8774250000000        -2.311920111695155E-013
   60.9904750000000        -2.320125169115782E-013
   61.1035250000000        -2.327605431183241E-013
   61.2165750000000        -2.334441082694937E-013
   61.3296250000000        -2.340742945300617E-013
   61.4426750000000        -2.346649641675052E-013
   61.5557250000000        -2.352325091896330E-013
   61.6687750000000        -2.357953695960293E-013
   61.7818250000000        -2.363734199723099E-013
   61.8948750000000        -2.369874086631509E-013
   62.0079250000000        -2.376581953323281E-013
   62.1209750000000        -2.384059250912328E-013
   62.2340250000000        -2.392492738178006E-013
   62.3470750000000        -2.402046188873001E-013
   62.4601250000000        -2.412851426641957E-013
   62.5731750000000        -2.425002043905421E-013
   62.6862250000000        -2.438546517651689E-013
   62.7992750000000        -2.453482578136010E-013
   62.9123250000000        -2.469754483738600E-013
   63.0253750000000        -2.487250599015118E-013
   63.1384250000000        -2.505803563006429E-013
   63.2514750000000        -2.525192952376788E-013
   63.3645250000000        -2.545150038861337E-013
   63.4775750000000        -2.565364184696250E-013
   63.5906250000000        -2.585492290934081E-013
   63.7036750000000        -2.605169890407488E-013
   63.8167250000000        -2.624023245755537E-013
   63.9297750000000        -2.641683803986400E-013
   64.0428250000000        -2.657802935095373E-013
   64.1558750000000        -2.672066942976181E-013
   64.2689250000000        -2.684211703433225E-013
   64.3819750000000        -2.694037595231686E-013
   64.4950250000000        -2.701421520500263E-013
   64.6080750000000        -2.706327196924103E-013
   64.7211250000000        -2.708813771838518E-013
   64.8341750000000        -2.709040382273566E-013
   64.9472250000000        -2.707267494633752E-013
   65.0602750000000        -2.703854082416461E-013
   65.1733250000000        -2.699251365117825E-013
   65.2863750000000        -2.693992511644029E-013
   65.3994250000000        -2.688678082393900E-013
   65.5124750000000        -2.683957694350158E-013