 -0.847875000000000        -8.995196786261921E-021
 -0.734825000000000        -9.328140975171949E-022
 -0.621775000000000         2.130237328056383E-019
 -0.508725000000000         1.495695524874724E-018
 -0.395675000000000         7.206997701867115E-018
 -0.282625000000000         2.842772509833389E-017
 -0.169575000000000         9.636346329464204E-017
 -5.652500000000005E-002    2.874419402001642E-016
  5.652499999999994E-002    7.682237034266964E-016
  0.169575000000000         1.862692465071305E-015
  0.282625000000000         4.148648906127249E-015
  0.395675000000000         8.576787782926159E-015
  0.508725000000000         1.660202545659678E-014
  0.621775000000000         3.033288523341180E-014
  0.734825000000000         5.266976398072915E-014
  0.847875000000000         8.746610359033144E-014
  0.960925000000000         1.395822401939410E-013
   1.07397500000000         2.149709639211379E-013
   1.18702500000000         3.207858431650025E-013
   1.30007500000000         4.653685497126878E-013
   1.41312500000000         6.582259306703384E-013
   1.52617500000000         9.099932869660359E-013
   1.63922500000000         1.232260624772456E-012
   1.75227500000000         1.637462266081154E-012
   1.86532500000000         2.138735224973042E-012
   1.97837500000000         2.749716792486482E-012
   2.09142500000000         3.484246724536255E-012
   2.20447500000000         4.356091956212609E-012
   2.31752500000000         5.378557784368478E-012
   2.43057500000000         6.564368274005689E-012
   2.54362500000000         7.925209599368586E-012
   2.65667500000000         9.471377259759915E-012
   2.76972500000000         1.121163678959623E-011
   2.88277500000000         1.315293016915613E-011
   2.99582500000000         1.529998277020541E-011
   3.10887500000000         1.765535545362116E-011
   3.22192500000000         2.021923232406576E-011
   3.33497500000000         2.298927662246158E-011
   3.44802500000000         2.596085591047913E-011
   3.56107500000000         2.912673638087903E-011
   3.67412500000000         3.247739033367369E-011
   3.78717500000000         3.600137624189767E-011
   3.90022500000000         3.968548333473439E-011
   4.01327500000000         4.351501260459694E-011
   4.12632500000000         4.747406844198434E-011
   4.23937500000000         5.154578817472083E-011
   4.35242500000000         5.571309943416463E-011
   4.46547500000000         5.995904961175212E-011
   4.57852500000000         6.426686753833896E-011
   4.69157500000000         6.862053627230875E-011
   4.80462500000000         7.300501129842834E-011
   4.91767500000000         7.740629712464417E-011
   5.03072500000000         8.181200339119349E-011
   5.14377500000000         8.621165533251213E-011
   5.25682500000000         9.059628509359305E-011
   5.36987500000000         9.495803800940964E-011
   5.48292500000000         9.929117119206396E-011
   5.59597500000000         1.035916820618014E-010
   5.70902500000000         1.078568683199000E-010
   5.82207500000000         1.120851813554828E-010
   5.93512500000000         1.162757517855669E-010
   6.04817500000000         1.204287656172981E-010
   6.16122500000000         1.245452351722575E-010
   6.27427500000000         1.286263786725225E-010
   6.38732500000000         1.326738619525173E-010
   6.50037500000000         1.366897234169296E-010
   6.61342500000000         1.406760067769457E-010
   6.72647500000000         1.446348587838107E-010
   6.83952500000000         1.485687802717314E-010
   6.95257500000000         1.524802197995314E-010
   7.06562500000000         1.563719384874682E-010
   7.17867500000000         1.602475198193670E-010
   7.29172500000000         1.641107048452889E-010
   7.40477500000000         1.679661074231854E-010
   7.51782500000000         1.718193040773483E-010
   7.63087500000000         1.756765811032696E-010
   7.74392500000000         1.795452422630996E-010
   7.85697500000000         1.834337769502552E-010
   7.97002500000000         1.873518106519580E-010
   8.08307500000000         1.913097193634826E-010
   8.19612500000000         1.953184877645199E-010
   8.30917500000000         1.993896183956835E-010
   8.42222500000000         2.035346869431749E-010
   8.53527500000000         2.077653741137555E-010
   8.64832500000000         2.120929422306227E-010
   8.76137500000000         2.165273175069538E-010
   8.87442500000000         2.210770750731666E-010
   8.98747500000000         2.257492764331555E-010
   9.10052500000000         2.305486314437042E-010
   9.21357500000000         2.354774710657078E-010
   9.32662500000000         2.405357352534115E-010
   9.43967500000000         2.457203477824286E-010
   9.55272500000000         2.510252687169181E-010
   9.66577500000000         2.564415028632073E-010
   9.77882500000000         2.619572573832776E-010
   9.89187500000000         2.675586124333318E-010
   10.0049250000000         2.732291063718603E-010
   10.1179750000000         2.789501557050127E-010
   10.2310250000000         2.847023404654013E-010
   10.3440750000000         2.904653857348706E-010
   10.4571250000000         2.962187405458154E-010
   10.5701750000000         3.019422794035362E-010
   10.6832250000000         3.076165622003710E-010
   10.7962750000000         3.132235654189474E-010
   10.9093250000000         3.187473342913781E-010
   11.0223750000000         3.241742381683095E-010
   11.1354250000000         3.294931742645269E-010
   11.2484750000000         3.346957578180018E-010
   11.3615250000000         3.397765209876603E-010
   11.4745750000000         3.447330764277930E-010
   11.5876250000000         3.495657633550792E-010
   11.7006750000000         3.542775440172902E-010
   11.8137250000000         3.588739169959491E-010
   11.9267750000000         3.633621513612232E-010
   12.0398250000000         3.677513317466891E-010
   12.1528750000000         3.720518217881163E-010
   12.2659250000000         3.762746010804610E-010
   12.3789750000000         3.804313441373906E-010
   12.4920250000000         3.845338484160610E-010
   12.6050750000000         3.885936640746776E-010
   12.7181250000000         3.926217542155237E-010
   12.8311750000000         3.966285426617683E-010
   12.9442250000000         4.006236286888486E-010
   13.0572750000000         4.046156518638100E-010
   13.1703250000000         4.086125586215073E-010
   13.2833750000000         4.126214830379870E-010
   13.3964250000000         4.166487974867255E-010
   13.5094750000000         4.207004203271188E-010
   13.6225250000000         4.247819678721932E-010
   13.7355750000000         4.288986333234284E-010
   13.8486250000000         4.330555679768509E-010
   13.9616750000000         4.372577193439630E-010
   14.0747250000000         4.415102001379219E-010
   14.1877750000000         4.458183979155444E-010
   14.3008250000000         4.501876888407518E-010
   14.4138750000000         4.546233897507638E-010
   14.5269250000000         4.591303819355696E-010
   14.6399750000000         4.637134306116836E-010
   14.7530250000000         4.683769120035130E-010
   14.8660750000000         4.731244307252019E-010
   14.9791250000000         4.779586674490035E-010
   15.0921750000000         4.828812314052925E-010
   15.2052250000000         4.878924356354085E-010
   15.3182750000000         4.929910332215368E-010
   15.4313250000000         4.981746488232576E-010
   15.5443750000000         5.034398422932717E-010
   15.6574250000000         5.087814958089954E-010
   15.7704750000000         5.141935810415145E-010
   15.8835250000000         5.196694785149926E-010
   15.9965750000000         5.252016544028647E-010
   16.1096250000000         5.307826516849240E-010
   16.2226750000000         5.364055591333233E-010
   16.3357250000000         5.420640506951321E-010
   16.4487750000000         5.477528702907463E-010
   16.5618250000000         5.534682828073436E-010
   16.6748750000000         5.592085718977262E-010
   16.7879250000000         5.649740724828907E-010
   16.9009750000000         5.707671402639549E-010
   17.0140250000000         5.765928035853041E-010
   17.1270750000000         5.824583882387252E-010
   17.2401250000000         5.883731375764048E-010
   17.3531750000000         5.943487454218735E-010
   17.4662250000000         6.003983308001371E-010
   17.5792750000000         6.065356217496743E-010
   17.6923250000000         6.127750246167325E-010
   17.8053750000000         6.191310342355013E-010
   17.9184250000000         6.256173574779528E-010
   18.0314750000000         6.322463385983820E-010
   18.1445250000000         6.390282544919350E-010
   18.2575750000000         6.459705258113515E-010
   18.3706250000000         6.530777408162382E-010
   18.4836750000000         6.603512015438302E-010
   18.5967250000000         6.677884036503546E-010
   18.7097750000000         6.753828205486373E-010
   18.8228250000000         6.831242919161696E-010
   18.9358750000000         6.909990593419509E-010
   19.0489250000000         6.989900987075455E-010
   19.1619750000000         7.070774634503111E-010
   19.2750250000000         7.152390856912903E-010
   19.3880750000000         7.234516882998409E-010
   19.5011250000000         7.316909163326062E-010
   19.6141750000000         7.399325715676694E-010
   19.7272250000000         7.481536070701867E-010
   19.8402750000000         7.563326034840697E-010
   19.9533250000000         7.644507884718933E-010
   20.0663750000000         7.724926840313382E-010
   20.1794250000000         7.804467179075090E-010
   20.2924750000000         7.883055330426060E-010
   20.4055250000000         7.960665473775071E-010
   20.5185750000000         8.037320661022779E-010
   20.6316250000000         8.113091454235668E-010
   20.7446750000000         8.188099850850301E-010
   20.8577250000000         8.262508745877406E-010
   20.9707750000000         8.336521756060906E-010
   21.0838250000000         8.410381059912876E-010
   21.1968750000000         8.484356138623628E-010
   21.3099250000000         8.558737579020550E-010
   21.4229750000000         8.633831652482120E-010
   21.5360250000000         8.709950367603015E-010
   21.6490750000000         8.787403013010066E-010
   21.7621250000000         8.866490580401832E-010
   21.8751750000000         8.947500013251163E-010
   21.9882250000000         9.030695192160619E-010
   22.1012750000000         9.116311824768272E-010
   22.2143250000000         9.204556156328249E-010
   22.3273750000000         9.295598137342892E-010
   22.4404250000000         9.389569570455881E-010
   22.5534750000000         9.486564714859575E-010
   22.6665250000000         9.586640842533514E-010
   22.7795750000000         9.689818783134970E-010
   22.8926250000000         9.796083435933240E-010
   23.0056750000000         9.905387331573574E-010
   23.1187250000000         1.001765382963026E-009
   23.2317750000000         1.013277837785560E-009
   23.3448250000000         1.025063540773467E-009
   23.4578750000000         1.037108200133305E-009
   23.5709250000000         1.049395896445672E-009
   23.6839750000000         1.061909457215036E-009
   23.7970250000000         1.074630921151589E-009
   23.9100750000000         1.087541717454529E-009
   24.0231250000000         1.100622756420947E-009
   24.1361750000000         1.113855145520674E-009
   24.2492250000000         1.127219833891491E-009
   24.3622750000000         1.140697717210993E-009
   24.4753250000000         1.154269799382650E-009
   24.5883750000000         1.167917261450968E-009
   24.7014250000000         1.181621863572611E-009
   24.8144750000000         1.195365370690758E-009
   24.9275250000000         1.209129679085545E-009
   25.0405750000000         1.222897229964358E-009
   25.1536250000000         1.236650813329179E-009
   25.2666750000000         1.250373612932693E-009
   25.3797250000000         1.264049429116260E-009
   25.4927750000000         1.277662552454636E-009
   25.6058250000000         1.291198326280509E-009
   25.7188750000000         1.304643401517762E-009
   25.8319250000000         1.317985464999472E-009
   25.9449750000000         1.331213571980053E-009
   26.0580250000000         1.344318720210858E-009
   26.1710750000000         1.357294079456365E-009
   26.2841250000000         1.370135271169626E-009
   26.3971750000000         1.382840316013635E-009
   26.5102250000000         1.395410111641504E-009
   26.6232750000000         1.407848564697567E-009
   26.7363250000000         1.420162560447783E-009
   26.8493750000000         1.432362488499742E-009
   26.9624250000000         1.444461653852004E-009
   27.0754750000000         1.456476483482061E-009
   27.1885250000000         1.468426262245950E-009
   27.3015750000000         1.480333026136481E-009
   27.4146250000000         1.492221249030945E-009
   27.5276750000000         1.504117023194666E-009
   27.6407250000000         1.516047941955686E-009
   27.7537750000000         1.528042572053553E-009
   27.8668250000000         1.540129868842741E-009
   27.9798750000000         1.552338581580907E-009
   28.0929250000000         1.564696641307259E-009
   28.2059750000000         1.577230422037559E-009
   28.3190250000000         1.589964065519986E-009
   28.4320750000000         1.602919572834032E-009
   28.5451250000000         1.616115936767171E-009
   28.6581750000000         1.629568678354707E-009
   28.7712250000000         1.643289806070188E-009
   28.8842750000000         1.657287498760881E-009
   28.9973250000000         1.671565753181360E-009
   29.1103750000000         1.686124511104799E-009
   29.2234250000000         1.700960187527561E-009
   29.3364750000000         1.716065588382743E-009
   29.4495250000000         1.731430144309888E-009
   29.5625750000000         1.747040361559339E-009
   29.6756250000000         1.762880280120226E-009
   29.7886750000000         1.778931799282522E-009
   29.9017250000000         1.795175534326148E-009
   30.0147750000000         1.811591157987436E-009
   30.1278250000000         1.828157541163637E-009
   30.2408750000000         1.844853754052220E-009
   30.3539250000000         1.861659543530144E-009
   30.4669750000000         1.878555489260896E-009
   30.5800250000000         1.895523395859585E-009
   30.6930750000000         1.912546131659490E-009
   30.8061250000000         1.929607983060766E-009
   30.9191750000000         1.946695155579847E-009
   31.0322250000000         1.963795446596169E-009
   31.1452750000000         1.980898127592573E-009
   31.2583250000000         1.997993722384363E-009
   31.3713750000000         2.015073971921162E-009
   31.4844250000000         2.032131771511509E-009
   31.5974750000000         2.049160506014082E-009
   31.7105250000000         2.066154320569321E-009
   31.8235750000000         2.083107680160661E-009
   31.9366250000000         2.100015157888068E-009
   32.0496750000000         2.116871615264805E-009
   32.1627250000000         2.133671965393633E-009
   32.2757750000000         2.150411230614578E-009
   32.3888250000000         2.167084568713846E-009
   32.5018750000000         2.183687607423507E-009
   32.6149250000000         2.200216620641228E-009
   32.7279750000000         2.216668791147579E-009
   32.8410250000000         2.233042511432144E-009
   32.9540750000000         2.249337686748701E-009
   33.0671250000000         2.265555925162827E-009
   33.1801750000000         2.281701006047269E-009
   33.2932250000000         2.297779532476430E-009
   33.4062750000000         2.313800733103962E-009
   33.5193250000000         2.329776373993081E-009
   33.6323750000000         2.345721112313082E-009
   33.7454250000000         2.361652533732029E-009
   33.8584750000000         2.377591054986617E-009
   33.9715250000000         2.393559387086407E-009
   34.0845750000000         2.409582331870203E-009
   34.1976250000000         2.425686614275035E-009
   34.3106750000000         2.441900175032852E-009
   34.4237250000000         2.458251394664055E-009
   34.5367750000000         2.474768929492449E-009
   34.6498250000000         2.491481062326032E-009
   34.7628750000000         2.508414734656026E-009
   34.8759250000000         2.525595547048581E-009
   34.9889750000000         2.543046899785989E-009
   35.1020250000000         2.560789451800126E-009
   35.2150750000000         2.578841030059484E-009
   35.3281250000000         2.597216250090363E-009
   35.4411750000000         2.615926553535613E-009
   35.5542250000000         2.634980181747943E-009
   35.6672750000000         2.654381964963544E-009
   35.7803250000000         2.674133671953418E-009
   35.8933750000000         2.694234483777017E-009
   36.0064250000000         2.714681355804238E-009
   36.1194750000000         2.735469308513553E-009
   36.2325250000000         2.756591907875769E-009
   36.3455750000000         2.778041731859082E-009
   36.4586250000000         2.799810962019479E-009
   36.5716750000000         2.821891820036999E-009
   36.6847250000000         2.844276695062569E-009
   36.7977750000000         2.866958813953189E-009
   36.9108250000000         2.889932262902358E-009
   37.0238750000000         2.913192189142846E-009
   37.1369250000000         2.936734706892599E-009
   37.2499750000000         2.960556826676654E-009
   37.3630250000000         2.984656415892355E-009
   37.4760750000000         3.009031775820745E-009
   37.5891250000000         3.033681309191918E-009
   37.7021750000000         3.058603252292675E-009
   37.8152250000000         3.083795066506390E-009
   37.9282750000000         3.109252782750171E-009
   38.0413250000000         3.134971095073236E-009
   38.1543750000000         3.160942603594323E-009
   38.2674250000000         3.187157441881349E-009
   38.3804750000000         3.213603179662382E-009
   38.4935250000000         3.240264727958537E-009
   38.6065750000000         3.267124165986046E-009
   38.7196250000000         3.294160886016070E-009
   38.8326750000000         3.321351875683538E-009
   38.9457250000000         3.348671925327260E-009
   39.0587750000000         3.376094294814670E-009
   39.1718250000000         3.403591132316785E-009
   39.2848750000000         3.431134039523484E-009
   39.3979250000000         3.458694912300881E-009
   39.5109750000000         3.486246779042582E-009
   39.6240250000000         3.513764293934557E-009
   39.7370750000000         3.541224511155554E-009
   39.8501250000000         3.568607596568738E-009
   39.9631750000000         3.595897362926071E-009
   40.0762250000000         3.623081779333618E-009
   40.1892750000000         3.650153410572274E-009
   40.3023250000000         3.677109531291701E-009
   40.4153750000000         3.703951951245173E-009
   40.5284250000000         3.730687488140615E-009
   40.6414750000000         3.757327842040597E-009
   40.7545250000000         3.783888838645391E-009
   40.8675750000000         3.810390085816699E-009
   40.9806250000000         3.836854664424794E-009
   41.0936750000000         3.863308417223837E-009
   41.2067250000000         3.889779141623312E-009
   41.3197750000000         3.916296100202016E-009
   41.4328250000000         3.942889177751229E-009
   41.5458750000000         3.969588335699243E-009
   41.6589250000000         3.996423068366438E-009
   41.7719750000000         4.023421597043028E-009
   41.8850250000000         4.050610487345802E-009
   41.9980750000000         4.078014356224981E-009
   42.1111250000000         4.105655237994640E-009
   42.2241750000000         4.133552507749086E-009
   42.3372250000000         4.161723005929019E-009
   42.4502750000000         4.190180739192082E-009
   42.5633250000000         4.218937143861805E-009
   42.6763750000000         4.248000695778163E-009
   42.7894250000000         4.277377416005635E-009
   42.9024750000000         4.307071254418498E-009
   43.0155250000000         4.337084160471294E-009
   43.1285750000000         4.367416016751521E-009
   43.2416250000000         4.398064695602412E-009
   43.3546750000000         4.429026467648624E-009
   43.4677250000000         4.460296085254479E-009
   43.5807750000000         4.491866881859030E-009
   43.6938250000000         4.523730409071041E-009
   43.8068750000000         4.555876473909157E-009
   43.9199250000000         4.588292983237947E-009
   44.0329750000000         4.620966092309134E-009
   44.1460250000000         4.653879977781925E-009
   44.2590750000000         4.687016552809179E-009
   44.3721250000000         4.720355087791867E-009
   44.4851750000000         4.753872655520308E-009
   44.5982250000000         4.787544069041606E-009
   44.7112750000000         4.821341495325088E-009
   44.8243250000000         4.855234787096532E-009
   44.9373750000000         4.889191944580729E-009
   45.0504250000000         4.923179464345651E-009
   45.1634750000000         4.957162739085468E-009
   45.2765250000000         4.991106466558243E-009
   45.3895750000000         5.024975416802471E-009
   45.5026250000000         5.058735483682783E-009
   45.6156750000000         5.092353961746881E-009
   45.7287250000000         5.125800572280297E-009
   45.8417750000000         5.159048352945808E-009
   45.9548250000000         5.192074226644043E-009
   46.0678750000000         5.224860038511695E-009
   46.1809250000000         5.257393375869873E-009
   46.2939750000000         5.289667510655186E-009
   46.4070250000000         5.321681759778674E-009
   46.5200750000000         5.353442491743745E-009
   46.6331250000000         5.384962751630718E-009
   46.7461750000000         5.416261786306095E-009
   46.8592250000000         5.447365446223074E-009
   46.9722750000000         5.478305463192434E-009
   47.0853250000000         5.509118630323218E-009
   47.1983750000000         5.539846334677263E-009
   47.3114250000000         5.570533746513714E-009
   47.4244750000000         5.601228571879223E-009
   47.5375250000000         5.631980311938991E-009
   47.6505750000000         5.662839205351916E-009
   47.7636250000000         5.693855040031748E-009
   47.8766750000000         5.725076470614124E-009
   47.9897250000000         5.756549958229810E-009
   48.1027750000000         5.788318904452182E-009
   48.2158250000000         5.820423113767656E-009
   48.3288750000000         5.852898278010964E-009
   48.4419250000000         5.885775455435632E-009
   48.5549750000000         5.919080899552943E-009
   48.6680250000000         5.952836137749790E-009
   48.7810750000000         5.987057711864328E-009
   48.8941250000000         6.021757741371082E-009
   49.0071750000000         6.056943957528360E-009
   49.1202250000000         6.092620090059181E-009
   49.2332750000000         6.128786493147965E-009
   49.3463250000000         6.165440448281599E-009
   49.4593750000000         6.202576986643938E-009
   49.5724250000000         6.240188993398827E-009
   49.6854750000000         6.278267856461662E-009
   49.7985250000000         6.316804011531631E-009
   49.9115750000000         6.355787164905044E-009
   50.0246250000000         6.395206537590970E-009
   50.1376750000000         6.435051259009039E-009
   50.2507250000000         6.475310518072636E-009
   50.3637750000000         6.515973320815182E-009
   50.4768250000000         6.557028727417474E-009
   50.5898750000000         6.598465753917968E-009
   50.7029250000000         6.640273169669128E-009
   50.8159750000000         6.682439596448446E-009
   50.9290250000000         6.724953093957269E-009
   51.0420750000000         6.767800906209883E-009
   51.1551250000000         6.810969746573168E-009
   51.2681750000000         6.854445817877680E-009
   51.3812250000000         6.898214277786768E-009
   51.4942750000000         6.942259485079647E-009
   51.6073250000000         6.986565357776119E-009
   51.7203750000000         7.031115264010787E-009
   51.8334250000000         7.075892266877880E-009
   51.9464750000000         7.120879402580303E-009
   52.0595250000000         7.166059930435316E-009
   52.1725750000000         7.211417752997510E-009
   52.2856250000000         7.256937871355818E-009
   52.3986750000000         7.302606350804384E-009
   52.5117250000000         7.348410711523775E-009
   52.6247750000000         7.394340470566794E-009
   52.7378250000000         7.440387067343389E-009
   52.8508750000000         7.486544033356711E-009
   52.9639250000000         7.532807177095549E-009
   53.0769750000000         7.579174324995531E-009
   53.1900250000000         7.625645425838253E-009
   53.3030750000000         7.672222714161394E-009
   53.4161250000000         7.718909816526328E-009
   53.5291750000000         7.765711937348984E-009
   53.6422250000000         7.812635501193972E-009
   53.7552750000000         7.859687664172877E-009
   53.8683250000000         7.906876224897620E-009
   53.9813750000000         7.954208741404797E-009
   54.0944250000000         8.001692769714493E-009
   54.2074750000000         8.049335370964810E-009
   54.3205250000000         8.097142765756040E-009
   54.4335750000000         8.145120447799411E-009
   54.5466250000000         8.193272624491873E-009
   54.6596750000000         8.241602266240805E-009
   54.7727250000000         8.290111346968044E-009
   54.8857750000000         8.338800915785579E-009
   54.9988250000000         8.387670943913599E-009
   55.1118750000000         8.436720483181975E-009
   55.2249250000000         8.485948202293190E-009
   55.3379750000000         8.535352510612327E-009
   55.4510250000000         8.584931981842176E-009
   55.5640750000000         8.634685230277940E-009
   55.6771250000000         8.684611184897912E-009
   55.7901750000000         8.734709846233302E-009
   55.9032250000000         8.784982189863105E-009
   56.0162750000000         8.835430266183809E-009
   56.1293250000000         8.886057249062715E-009
   56.2423750000000         8.936867586144189E-009
   56.3554250000000         8.987867061875930E-009
   56.4684750000000         9.039062710773563E-009
   56.5815250000000         9.090462514173188E-009
   56.6945750000000         9.142075107509168E-009
   56.8076250000000         9.193909972452904E-009
   56.9206750000000         9.245977223346906E-009
   57.0337250000000         9.298286784972107E-009
   57.1467750000000         9.350848213729263E-009
   57.2598250000000         9.403670484568464E-009
   57.3728750000000         9.456761455717844E-009
   57.4859250000000         9.510127874538611E-009
   57.5989750000000         9.563774645471322E-009
   57.7120250000000         9.617704561936348E-009
   57.8250750000000         9.671918030432303E-009
   57.9381250000000         9.726412402359617E-009
   58.0511750000000         9.781182114139586E-009
   58.1642250000000         9.836218288060407E-009
   58.2772750000000         9.891508347239706E-009
   58.3903250000000         9.947035748818571E-009
   58.5033750000000         1.000277993152071E-008
   58.6164250000000         1.005871659554197E-008
   58.7294750000000         1.011481725062065E-008
   58.8425250000000         1.017104942269889E-008
   58.9555750000000         1.022737721232997E-008
   59.0686250000000         1.028376129870941E-008
   59.1816750000000         1.034015948988581E-008
   59.2947250000000         1.039652740000326E-008
   59.4077750000000         1.045281933287981E-008
   59.5208250000000         1.050898929097638E-008
   59.6338750000000         1.056499205362856E-008
   59.7469250000000         1.062078410817652E-008
   59.8599750000000         1.067632540091363E-008
   59.9730250000000         1.073158117469339E-008
   60.0860750000000         1.078652304156307E-008
   60.1991250000000         1.084113083468667E-008
   60.3121750000000         1.089539393225653E-008
   60.4252250000000         1.094931285778187E-008
   60.5382750000000         1.100290092094734E-008
   60.6513250000000         1.105618505668343E-008
   60.7643750000000         1.110920673803481E-008
   60.8774250000000         1.116202243314107E-008
   60.9904750000000         1.121470388876911E-008
   61.1035250000000         1.126733731640664E-008
   61.2165750000000         1.132002237445472E-008
   61.3296250000000         1.137287096527055E-008
   61.4426750000000         1.142600464437684E-008
   61.5557250000000         1.147955211534372E-008
   61.6687750000000         1.153364568905240E-008
   61.7818250000000         1.158841764410919E-008
   61.8948750000000         1.164399580246186E-008
   62.0079250000000         1.170049875680074E-008
   62.1209750000000         1.175803167917706E-008
   62.2340250000000         1.181668102417794E-008
   62.3470750000000         1.187651000576482E-008
   62.4601250000000         1.193755465276491E-008
   62.5731750000000         1.199981991540237E-008
   62.6862250000000         1.206327682294218E-008
   62.7992750000000         1.212786039400998E-008
   62.9123250000000         1.219346902819386E-008
   63.0253750000000         1.225996520457582E-008
   63.1384250000000         1.232717683046219E-008
   63.2514750000000         1.239490140538058E-008
   63.3645250000000         1.246291084310998E-008
   63.4775750000000         1.253095800190697E-008
   63.5906250000000         1.259878493852212E-008
   63.7036750000000         1.266613149794420E-008
   63.8167250000000         1.273274624712881E-008
   63.9297750000000         1.279839739998998E-008
   64.0428250000000         1.286288394253552E-008
   64.1558750000000         1.292604766989220E-008
   64.2689250000000         1.298778363864009E-008
   64.3819750000000         1.304805035093840E-008
   64.4950250000000         1.310687851526820E-008
   64.6080750000000         1.316437721158435E-008
   64.7211250000000         1.322073848436341E-008
   64.8341750000000         1.327623879604062E-008
   64.9472250000000         1.333123717802908E-008
   65.0602750000000         1.338617001631087E-008
   65.1733250000000         1.344154203620679E-008
   65.2863750000000         1.349791381035056E-008
   65.3994250000000         1.355588609063818E-008
   65.5124750000000         1.361608014137024E-008