 -0.847875000000000        -5.965920752773584E-018
 -0.734825000000000        -5.961901971202703E-018
 -0.621775000000000        -5.953569789572476E-018
 -0.508725000000000        -5.935874394134760E-018
 -0.395675000000000        -5.888294111785882E-018
 -0.282625000000000        -5.753472865472234E-018
 -0.169575000000000        -5.449447409468184E-018
 -5.652500000000005E-002   -5.068772126772099E-018
  5.652499999999994E-002   -5.685924334179975E-018
  0.169575000000000        -1.193732386913182E-017
  0.282625000000000        -3.667531505020970E-017
  0.395675000000000        -1.115485582494650E-016
  0.508725000000000        -3.006607079022137E-016
  0.621775000000000        -7.198983205131979E-016
  0.734825000000000        -1.565411378746533E-015
  0.847875000000000        -3.146721672482641E-015
  0.960925000000000        -5.916385270156123E-015
   1.07397500000000        -1.051167761481014E-014
   1.18702500000000        -1.779997791579720E-014
   1.30007500000000        -2.891375683859249E-014
   1.41312500000000        -4.528960360725688E-014
   1.52617500000000        -6.870067080013733E-014
   1.63922500000000        -1.012911322644067E-013
   1.75227500000000        -1.455827350471229E-013
   1.86532500000000        -2.045059592585852E-013
   1.97837500000000        -2.813423324996496E-013
   2.09142500000000        -3.797515609864164E-013
   2.20447500000000        -5.037146616963485E-013
   2.31752500000000        -6.574657104883022E-013
   2.43057500000000        -8.454405094690291E-013
   2.54362500000000        -1.072138205231568E-012
   2.65667500000000        -1.342029153152025E-012
   2.76972500000000        -1.659393337875333E-012
   2.88277500000000        -2.028242879248964E-012
   2.99582500000000        -2.452093463247667E-012
   3.10887500000000        -2.933879648273060E-012
   3.22192500000000        -3.475721943068842E-012
   3.33497500000000        -4.078843789004590E-012
   3.44802500000000        -4.743349361886006E-012
   3.56107500000000        -5.468203378608409E-012
   3.67412500000000        -6.251114855851440E-012
   3.78717500000000        -7.088358980924368E-012
   3.90022500000000        -7.974877317739688E-012
   4.01327500000000        -8.904247991736861E-012
   4.12632500000000        -9.868690473063114E-012
   4.23937500000000        -1.085909513965764E-011
   4.35242500000000        -1.186524362813601E-011
   4.46547500000000        -1.287590009088908E-011
   4.57852500000000        -1.387899910059198E-011
   4.69157500000000        -1.486185958944165E-011
   4.80462500000000        -1.581140699173690E-011
   4.91767500000000        -1.671442584452693E-011
   5.03072500000000        -1.755782423274163E-011
   5.14377500000000        -1.832882619291497E-011
   5.25682500000000        -1.901526801110835E-011
   5.36987500000000        -1.960574516804567E-011
   5.48292500000000        -2.008988193764170E-011
   5.59597500000000        -2.045845613880244E-011
   5.70902500000000        -2.070351681595656E-011
   5.82207500000000        -2.081851166521308E-011
   5.93512500000000        -2.079823568060241E-011
   6.04817500000000        -2.063896072314129E-011
   6.16122500000000        -2.033829989451333E-011
   6.27427500000000        -1.989516347705034E-011
   6.38732500000000        -1.930960063911158E-011
   6.50037500000000        -1.858277041229860E-011
   6.61342500000000        -1.771681290339211E-011
   6.72647500000000        -1.671448930324348E-011
   6.83952500000000        -1.557921330705826E-011
   6.95257500000000        -1.431483509862108E-011
   7.06562500000000        -1.292544960024507E-011
   7.17867500000000        -1.141529327073457E-011
   7.29172500000000        -9.788622178125968E-012
   7.40477500000000        -8.049615707281388E-012
   7.51782500000000        -6.202349119084104E-012
   7.63087500000000        -4.250770456296225E-012
   7.74392500000000        -2.198716554847308E-012
   7.85697500000000        -4.985193914570842E-014
   7.97002500000000         2.192213128759792E-012
   8.08307500000000         4.523872133910185E-012
   8.19612500000000         6.941466636377937E-012
   8.30917500000000         9.441130406690810E-012
   8.42222500000000         1.201872827802367E-011
   8.53527500000000         1.466984763784379E-011
   8.64832500000000         1.738959942600166E-011
   8.76137500000000         2.017269414801610E-011
   8.87442500000000         2.301334335627228E-011
   8.98747500000000         2.590525997788239E-011
   9.10052500000000         2.884169786759592E-011
   9.21357500000000         3.181545356942203E-011
   9.32662500000000         3.481899911728599E-011
   9.43967500000000         3.784451983882292E-011
   9.55272500000000         4.088404643065498E-011
   9.66577500000000         4.392959920455033E-011
   9.77882500000000         4.697331820553063E-011
   9.89187500000000         5.000762111859614E-011
   10.0049250000000         5.302532710937345E-011
   10.1179750000000         5.601980764366189E-011
   10.2310250000000         5.898514598585264E-011
   10.3440750000000         6.191621570557073E-011
   10.4571250000000         6.480885710358977E-011
   10.5701750000000         6.765990603905913E-011
   10.6832250000000         7.046726766796518E-011
   10.7962750000000         7.323003503415686E-011
   10.9093250000000         7.594843074149307E-011
   11.0223750000000         7.862386681055570E-011
   11.1354250000000         8.125891952613606E-011
   11.2484750000000         8.385733006153133E-011
   11.3615250000000         8.642387973125945E-011
   11.4745750000000         8.896438845088199E-011
   11.5876250000000         9.148563152768221E-011
   11.7006750000000         9.399524379587663E-011
   11.8137250000000         9.650163379926051E-011
   11.9267750000000         9.901380488910474E-011
   12.0398250000000         1.015412985292512E-010
   12.1528750000000         1.040940135729716E-010
   12.2659250000000         1.066820752118452E-010
   12.3789750000000         1.093157095399065E-010
   12.4920250000000         1.120050265867904E-010
   12.6050750000000         1.147599179622200E-010
   12.7181250000000         1.175898098690356E-010
   12.8311750000000         1.205035940930371E-010
   12.9442250000000         1.235092986604750E-010
   13.0572750000000         1.266139875640043E-010
   13.1703250000000         1.298235670729762E-010
   13.2833750000000         1.331426702671746E-010
   13.3964250000000         1.365745070803932E-010
   13.5094750000000         1.401206833843740E-010
   13.6225250000000         1.437811689079316E-010
   13.7355750000000         1.475541846533040E-010
   13.8486250000000         1.514361470465192E-010
   13.9616750000000         1.554217709424220E-010
   14.0747250000000         1.595039955065262E-010
   14.1877750000000         1.636741014128629E-010
   14.3008250000000         1.679219024925893E-010
   14.4138750000000         1.722358423333993E-010
   14.5269250000000         1.766032500448649E-010
   14.6399750000000         1.810104443648760E-010
   14.7530250000000         1.854431696017143E-010
   14.8660750000000         1.898867295818037E-010
   14.9791250000000         1.943262915284626E-010
   15.0921750000000         1.987472426101777E-010
   15.2052250000000         2.031353368343833E-010
   15.3182750000000         2.074770260064021E-010
   15.4313250000000         2.117596635655053E-010
   15.5443750000000         2.159717449683378E-010
   15.6574250000000         2.201029921650294E-010
   15.7704750000000         2.241445311759139E-010
   15.8835250000000         2.280889449111155E-010
   15.9965750000000         2.319303376854168E-010
   16.1096250000000         2.356643050830570E-010
   16.2226750000000         2.392879489234335E-010
   16.3357250000000         2.427997286941076E-010
   16.4487750000000         2.461994252114222E-010
   16.5618250000000         2.494880199532310E-010
   16.6748750000000         2.526676115372606E-010
   16.7879250000000         2.557411874428247E-010
   16.9009750000000         2.587125769899672E-010
   17.0140250000000         2.615863432126363E-010
   17.1270750000000         2.643677169758883E-010
   17.2401250000000         2.670624505457632E-010
   17.3531750000000         2.696767335786977E-010
   17.4662250000000         2.722173218834682E-010
   17.5792750000000         2.746913035588918E-010
   17.6923250000000         2.771062645507811E-010
   17.8053750000000         2.794701482381073E-010
   17.9184250000000         2.817912866753557E-010
   18.0314750000000         2.840784665072299E-010
   18.1445250000000         2.863408774704994E-010
   18.2575750000000         2.885880512216841E-010
   18.3706250000000         2.908298483707554E-010
   18.4836750000000         2.930763264401156E-010
   18.5967250000000         2.953377185402137E-010
   18.7097750000000         2.976242211491154E-010
   18.8228250000000         2.999458537064547E-010
   18.9358750000000         3.023122578022083E-010
   19.0489250000000         3.047324900346486E-010
   19.1619750000000         3.072147983578465E-010
   19.2750250000000         3.097663794115376E-010
   19.3880750000000         3.123932273253509E-010
   19.5011250000000         3.150998186872515E-010
   19.6141750000000         3.178889735928575E-010
   19.7272250000000         3.207617114876225E-010
   19.8402750000000         3.237171058116039E-010
   19.9533250000000         3.267523400054696E-010
   20.0663750000000         3.298626417861343E-010
   20.1794250000000         3.330412585510567E-010
   20.2924750000000         3.362796651023082E-010
   20.4055250000000         3.395677275728977E-010
   20.5185750000000         3.428939109908628E-010
   20.6316250000000         3.462455437765301E-010
   20.7446750000000         3.496090988958555E-010
   20.8577250000000         3.529705722385856E-010
   20.9707750000000         3.563158089869665E-010
   21.0838250000000         3.596308499918394E-010
   21.1968750000000         3.629022473720419E-010
   21.3099250000000         3.661173628895474E-010
   21.4229750000000         3.692647752887124E-010
   21.5360250000000         3.723343774259871E-010
   21.6490750000000         3.753176179067388E-010
   21.7621250000000         3.782076904847605E-010
   21.8751750000000         3.809995801181473E-010
   21.9882250000000         3.836901528910820E-010
   22.1012750000000         3.862780924280749E-010
   22.2143250000000         3.887639067559655E-010
   22.3273750000000         3.911497815069263E-010
   22.4404250000000         3.934394634915730E-010
   22.5534750000000         3.956380860308548E-010
   22.6665250000000         3.977520042258257E-010
   22.7795750000000         3.997886248097795E-010
   22.8926250000000         4.017561644988655E-010
   23.0056750000000         4.036635545873899E-010
   23.1187250000000         4.055201554011658E-010
   23.2317750000000         4.073357012325300E-010
   23.3448250000000         4.091200816661291E-010
   23.4578750000000         4.108832335865170E-010
   23.5709250000000         4.126350332058328E-010
   23.6839750000000         4.143851988793258E-010
   23.7970250000000         4.161431571283678E-010
   23.9100750000000         4.179180261444888E-010
   24.0231250000000         4.197184834452361E-010
   24.1361750000000         4.215527131798552E-010
   24.2492250000000         4.234283799975450E-010
   24.3622750000000         4.253524722678637E-010
   24.4753250000000         4.273312725768504E-010
   24.5883750000000         4.293702242835171E-010
   24.7014250000000         4.314738455028053E-010
   24.8144750000000         4.336455880751188E-010
   24.9275250000000         4.358877821275567E-010
   25.0405750000000         4.382014974716988E-010
   25.1536250000000         4.405864562682605E-010
   25.2666750000000         4.430409720095906E-010
   25.3797250000000         4.455618594263973E-010
   25.4927750000000         4.481444456189784E-010
   25.6058250000000         4.507824775735550E-010
   25.7188750000000         4.534682063483730E-010
   25.8319250000000         4.561924296195642E-010
   25.9449750000000         4.589446444980354E-010
   26.0580250000000         4.617130548399037E-010
   26.1710750000000         4.644848772514445E-010
   26.2841250000000         4.672464492140398E-010
   26.3971750000000         4.699834556950683E-010
   26.5102250000000         4.726811933044820E-010
   26.6232750000000         4.753248303029560E-010
   26.7363250000000         4.778996141788680E-010
   26.8493750000000         4.803911215349110E-010
   26.9624250000000         4.827855915777240E-010
   27.0754750000000         4.850700276232420E-010
   27.1885250000000         4.872324584613815E-010
   27.3015750000000         4.892620458303211E-010
   27.4146250000000         4.911492458487544E-010
   27.5276750000000         4.928859579178982E-010
   27.6407250000000         4.944655358286063E-010
   27.7537750000000         4.958828138916860E-010
   27.8668250000000         4.971340537458366E-010
   27.9798750000000         4.982169506663914E-010
   28.0929250000000         4.991305838593872E-010
   28.2059750000000         4.998752437742203E-010
   28.3190250000000         5.004524294607869E-010
   28.4320750000000         5.008646167659432E-010
   28.5451250000000         5.011152233064025E-010
   28.6581750000000         5.012083885132930E-010
   28.7712250000000         5.011489148294238E-010
   28.8842750000000         5.009421005299823E-010
   28.9973250000000         5.005936293440838E-010
   29.1103750000000         5.001093958366363E-010
   29.2234250000000         4.994954843481208E-010
   29.3364750000000         4.987580174465087E-010
   29.4495250000000         4.979031179409238E-010
   29.5625750000000         4.969367234200503E-010
   29.6756250000000         4.958645782330691E-010
   29.7886750000000         4.946921107036591E-010
   29.9017250000000         4.934244174657918E-010
   30.0147750000000         4.920661368450897E-010
   30.1278250000000         4.906213836657749E-010
   30.2408750000000         4.890937510292255E-010
   30.3539250000000         4.874861929882629E-010
   30.4669750000000         4.858009860527631E-010
   30.5800250000000         4.840396889883614E-010
   30.6930750000000         4.822031140296671E-010
   30.8061250000000         4.802912896041027E-010
   30.9191750000000         4.783034422650628E-010
   31.0322250000000         4.762379918373243E-010
   31.1452750000000         4.740925800105422E-010
   31.2583250000000         4.718641077741995E-010
   31.3713750000000         4.695487507468358E-010
   31.4844250000000         4.671420607091119E-010
   31.5974750000000         4.646390358259777E-010
   31.7105250000000         4.620341715414965E-010
   31.8235750000000         4.593215734275353E-010
   31.9366250000000         4.564950632918952E-010
   32.0496750000000         4.535483198242899E-010
   32.1627250000000         4.504749660948252E-010
   32.2757750000000         4.472686830588527E-010
   32.3888250000000         4.439233107214533E-010
   32.5018750000000         4.404329322470569E-010
   32.6149250000000         4.367919667758100E-010
   32.7279750000000         4.329952095575666E-010
   32.8410250000000         4.290379597519678E-010
   32.9540750000000         4.249159750053572E-010
   33.0671250000000         4.206256004963603E-010
   33.1801750000000         4.161637464572350E-010
   33.2932250000000         4.115278052533979E-010
   33.4062750000000         4.067157123145014E-010
   33.5193250000000         4.017259615435123E-010
   33.6323750000000         3.965574827313849E-010
   33.7454250000000         3.912096417028758E-010
   33.8584750000000         3.856822239901802E-010
   33.9715250000000         3.799753585379815E-010
   34.0845750000000         3.740894650632172E-010
   34.1976250000000         3.680252245137160E-010
   34.3106750000000         3.617835210677990E-010
   34.4237250000000         3.553654450986407E-010
   34.5367750000000         3.487721293222837E-010
   34.6498250000000         3.420048680403077E-010
   34.7628750000000         3.350649548027205E-010
   34.8759250000000         3.279537521031751E-010
   34.9889750000000         3.206726268654096E-010
   35.1020250000000         3.132229708407249E-010
   35.2150750000000         3.056061212677536E-010
   35.3281250000000         2.978235072271278E-010
   35.4411750000000         2.898764971911509E-010
   35.5542250000000         2.817665188200765E-010
   35.6672750000000         2.734950485572654E-010
   35.7803250000000         2.650636591561631E-010
   35.8933750000000         2.564740466205757E-010
   36.0064250000000         2.477281296456669E-010
   36.1194750000000         2.388280049515712E-010
   36.2325250000000         2.297760423464186E-010
   36.3455750000000         2.205749383235487E-010
   36.4586250000000         2.112277880646965E-010
   36.5716750000000         2.017379952929942E-010
   36.6847250000000         1.921093294001939E-010
   36.7977750000000         1.823459090585128E-010
   36.9108250000000         1.724521641560326E-010
   37.0238750000000         1.624327795359984E-010
   37.1369250000000         1.522925413120587E-010
   37.2499750000000         1.420362270524935E-010
   37.3630250000000         1.316684645125073E-010
   37.4760750000000         1.211934650155855E-010
   37.5891250000000         1.106148611232365E-010
   37.7021750000000         9.993546489271188E-011
   37.8152250000000         8.915697468821807E-011
   37.9282750000000         7.827981791031038E-011
   38.0413250000000         6.730290195430062E-011
   38.1543750000000         5.622334971792280E-011
   38.2674250000000         4.503636309741678E-011
   38.3804750000000         3.373514358825144E-011
   38.4935250000000         2.231079733961270E-011
   38.6065750000000         1.075236362260276E-011
   38.7196250000000        -9.530919718794057E-013
   38.8326750000000        -1.282033045904712E-011
   38.9457250000000        -2.486566366422826E-011
   39.0587750000000        -3.710660833728520E-011
   39.1718250000000        -4.956152138425079E-011
   39.2848750000000        -6.224909586625569E-011
   39.3979250000000        -7.518785258465622E-011
   39.5109750000000        -8.839560915070509E-011
   39.6240250000000        -1.018888897255972E-010
   39.7370750000000        -1.156823821449962E-010
   39.8501250000000        -1.297884130224683E-010
   39.9631750000000        -1.442164738540697E-010
   40.0762250000000        -1.589728143684321E-010
   40.1892750000000        -1.740601622094666E-010
   40.3023250000000        -1.894775072568542E-010
   40.4153750000000        -2.052200194020322E-010
   40.5284250000000        -2.212791043300651E-010
   40.6414750000000        -2.376426070511404E-010
   40.7545250000000        -2.542950937588681E-010
   40.8675750000000        -2.712183105140584E-010
   40.9806250000000        -2.883916646061626E-010
   41.0936750000000        -3.057929592131189E-010
   41.2067250000000        -3.233989775550255E-010
   41.3197750000000        -3.411862766845063E-010
   41.4328250000000        -3.591320403658326E-010
   41.5458750000000        -3.772146769335418E-010
   41.6589250000000        -3.954146286348039E-010
   41.7719750000000        -4.137150149470178E-010
   41.8850250000000        -4.321022168003904E-010
   41.9980750000000        -4.505663124767347E-010
   42.1111250000000        -4.691014099490776E-010
   42.2241750000000        -4.877059571356080E-010
   42.3372250000000        -5.063827478879781E-010
   42.4502750000000        -5.251388944011317E-010
   42.5633250000000        -5.439856383259959E-010
   42.6763750000000        -5.629380677797263E-010
   42.7894250000000        -5.820147251662525E-010
   42.9024750000000        -6.012371614614299E-010
   43.0155250000000        -6.206293413633641E-010
   43.1285750000000        -6.402170702504536E-010
   43.2416250000000        -6.600273831013774E-010
   43.3546750000000        -6.800879842629965E-010
   43.4677250000000        -7.004265938585396E-010
   43.5807750000000        -7.210704542322500E-010
   43.6938250000000        -7.420458912971828E-010
   43.8068750000000        -7.633777646764868E-010
   43.9199250000000        -7.850892344653606E-010
   44.0329750000000        -8.072014829483962E-010
   44.1460250000000        -8.297334394651425E-010
   44.2590750000000        -8.527016350857795E-010
   44.3721250000000        -8.761202543082471E-010
   44.4851750000000        -9.000010913505077E-010
   44.5982250000000        -9.243534135182339E-010
   44.7112750000000        -9.491841930482210E-010
   44.8243250000000        -9.744982032382478E-010
   44.9373750000000        -1.000298007344239E-009
   45.0504250000000        -1.026584071325660E-009
   45.1634750000000        -1.053354874382087E-009
   45.2765250000000        -1.080606972892850E-009
   45.3895750000000        -1.108335102861083E-009
   45.5026250000000        -1.136532241430776E-009
   45.6156750000000        -1.165189698554558E-009
   45.7287250000000        -1.194297080718433E-009
   45.8417750000000        -1.223842417338647E-009
   45.9548250000000        -1.253812179697240E-009
   46.0678750000000        -1.284191538511956E-009
   46.1809250000000        -1.314964264284547E-009
   46.2939750000000        -1.346112985230764E-009
   46.4070250000000        -1.377619382866606E-009
   46.5200750000000        -1.409464413863660E-009
   46.6331250000000        -1.441628490105078E-009
   46.7461750000000        -1.474091832215684E-009
   46.8592250000000        -1.506834814678742E-009
   46.9722750000000        -1.539838222098157E-009
   47.0853250000000        -1.573083626446163E-009
   47.1983750000000        -1.606553732188672E-009
   47.3114250000000        -1.640232729036282E-009
   47.4244750000000        -1.674106537336040E-009
   47.5375250000000        -1.708163198560805E-009
   47.6505750000000        -1.742393035219786E-009
   47.7636250000000        -1.776788837300393E-009
   47.8766750000000        -1.811346067972276E-009
   47.9897250000000        -1.846062892397062E-009
   48.1027750000000        -1.880940254280814E-009
   48.2158250000000        -1.915981755717951E-009
   48.3288750000000        -1.951193575009486E-009
   48.4419250000000        -1.986584370333796E-009
   48.5549750000000        -2.022165022023286E-009
   48.6680250000000        -2.057948458919133E-009
   48.7810750000000        -2.093949363483824E-009
   48.8941250000000        -2.130183983079846E-009
   49.0071750000000        -2.166669773609158E-009
   49.1202250000000        -2.203425194398261E-009
   49.2332750000000        -2.240469327804111E-009
   49.3463250000000        -2.277821799338803E-009
   49.4593750000000        -2.315502400829949E-009
   49.5724250000000        -2.353530794793336E-009
   49.6854750000000        -2.391926541759280E-009
   49.7985250000000        -2.430708713566734E-009
   49.9115750000000        -2.469895767768231E-009
   50.0246250000000        -2.509505422032554E-009
   50.1376750000000        -2.549554395219909E-009
   50.2507250000000        -2.590058440047293E-009
   50.3637750000000        -2.631031933317201E-009
   50.4768250000000        -2.672487973992549E-009
   50.5898750000000        -2.714438086843713E-009
   50.7029250000000        -2.756892144743683E-009
   50.8159750000000        -2.799858249490770E-009
   50.9290250000000        -2.843342615176496E-009
   51.0420750000000        -2.887349429366795E-009
   51.1551250000000        -2.931880792673691E-009
   51.2681750000000        -2.976936681641688E-009
   51.3812250000000        -3.022514980243936E-009
   51.4942750000000        -3.068611501447257E-009
   51.6073250000000        -3.115220078880422E-009
   51.7203750000000        -3.162332666107421E-009
   51.8334250000000        -3.209939517583273E-009
   51.9464750000000        -3.258029504492179E-009
   52.0595250000000        -3.306590361588703E-009
   52.1725750000000        -3.355609061968608E-009
   52.2856250000000        -3.405072056974206E-009
   52.3986750000000        -3.454965731084018E-009
   52.5117250000000        -3.505276773452694E-009
   52.6247750000000        -3.555992498079122E-009
   52.7378250000000        -3.607101290365405E-009
   52.8508750000000        -3.658592804927748E-009
   52.9639250000000        -3.710458278214155E-009
   53.0769750000000        -3.762690720371386E-009
   53.1900250000000        -3.815284990586197E-009
   53.3030750000000        -3.868237889455029E-009
   53.4161250000000        -3.921548123322118E-009
   53.5291750000000        -3.975216151855673E-009
   53.6422250000000        -4.029244019562980E-009
   53.7552750000000        -4.083635114529321E-009
   53.8683250000000        -4.138393880633819E-009
   53.9813750000000        -4.193525533972246E-009
   54.0944250000000        -4.249035640709491E-009
   54.2074750000000        -4.304929825049421E-009
   54.3205250000000        -4.361213422501009E-009
   54.4335750000000        -4.417891311079165E-009
   54.5466250000000        -4.474967536638147E-009
   54.6596750000000        -4.532445303029088E-009
   54.7727250000000        -4.590326873139317E-009
   54.8857750000000        -4.648613571110127E-009
   54.9988250000000        -4.707305887103063E-009
   55.1118750000000        -4.766403735264871E-009
   55.2249250000000        -4.825906710863130E-009
   55.3379750000000        -4.885814469031452E-009
   55.4510250000000        -4.946127097486892E-009
   55.5640750000000        -5.006845532887615E-009
   55.6771250000000        -5.067972062285793E-009
   55.7901750000000        -5.129510697020480E-009
   55.9032250000000        -5.191467576974156E-009
   56.0162750000000        -5.253851311991212E-009
   56.1293250000000        -5.316673244940903E-009
   56.2423750000000        -5.379947561311605E-009
   56.3554250000000        -5.443691302854065E-009
   56.4684750000000        -5.507924243199327E-009
   56.5815250000000        -5.572668623408150E-009
   56.6945750000000        -5.637948847474667E-009
   56.8076250000000        -5.703790917453755E-009
   56.9206750000000        -5.770221799140229E-009
   57.0337250000000        -5.837268693610710E-009
   57.1467750000000        -5.904958216279556E-009
   57.2598250000000        -5.973315642705371E-009
   57.3728750000000        -6.042363881298641E-009
   57.4859250000000        -6.112122669130174E-009
   57.5989750000000        -6.182607760047394E-009
   57.7120250000000        -6.253830193584168E-009
   57.8250750000000        -6.325795640268972E-009
   57.9381250000000        -6.398503831389842E-009
   58.0511750000000        -6.471948318940346E-009
   58.1642250000000        -6.546116287081021E-009
   58.2772750000000        -6.620988650099552E-009
   58.3903250000000        -6.696540270326848E-009
   58.5033750000000        -6.772740452452863E-009
   58.6164250000000        -6.849553595716023E-009
   58.7294750000000        -6.926940102779414E-009
   58.8425250000000        -7.004857392129190E-009
   58.9555750000000        -7.083261191306721E-009
   59.0686250000000        -7.162106755952087E-009
   59.1816750000000        -7.241350292453932E-009
   59.2947250000000        -7.320950434882828E-009
   59.4077750000000        -7.400869589808413E-009
   59.5208250000000        -7.481075295304599E-009
   59.6338750000000        -7.561541536621299E-009
   59.7469250000000        -7.642249805554468E-009
   59.8599750000000        -7.723190014544926E-009
   59.9730250000000        -7.804361141301784E-009
   60.0860750000000        -7.885771573735940E-009
   60.1991250000000        -7.967439240788296E-009
   60.3121750000000        -8.049391329584709E-009
   60.4252250000000        -8.131663762279674E-009
   60.5382750000000        -8.214300278927612E-009
   60.6513250000000        -8.297351115263503E-009
   60.7643750000000        -8.380871601226674E-009
   60.8774250000000        -8.464920449141858E-009
   60.9904750000000        -8.549557625458249E-009
   61.1035250000000        -8.634842326277493E-009
   61.2165750000000        -8.720830764532287E-009
   61.3296250000000        -8.807573968967998E-009
   61.4426750000000        -8.895115604907562E-009
   61.5557250000000        -8.983490107612256E-009
   61.6687750000000        -9.072720787632866E-009
   61.7818250000000        -9.162818574170428E-009
   61.8948750000000        -9.253780939498856E-009
   62.0079250000000        -9.345591337708997E-009
   62.1209750000000        -9.438219135077090E-009
   62.2340250000000        -9.531620186147569E-009
   62.3470750000000        -9.625737731880160E-009
   62.4601250000000        -9.720504102412999E-009
   62.5731750000000        -9.815842879343685E-009
   62.6862250000000        -9.911671429075254E-009
   62.7992750000000        -1.000790404491349E-008
   62.9123250000000        -1.010445529338272E-008
   63.0253750000000        -1.020124356938561E-008
   63.1384250000000        -1.029819487005308E-008
   63.2514750000000        -1.039524638832715E-008
   63.3645250000000        -1.049235005719983E-008
   63.4775750000000        -1.058947560552817E-008
   63.5906250000000        -1.068661338169227E-008
   63.7036750000000        -1.078377627691018E-008
   63.8167250000000        -1.088100116557542E-008
   63.9297750000000        -1.097834939626514E-008
   64.0428250000000        -1.107590641649971E-008
   64.1558750000000        -1.117378041178463E-008
   64.2689250000000        -1.127210007863203E-008
   64.3819750000000        -1.137101139517371E-008
   64.4950250000000        -1.147067346506795E-008
   64.6080750000000        -1.157125376245746E-008
   64.7211250000000        -1.167292260442169E-008
   64.8341750000000        -1.177584722044676E-008
   64.9472250000000        -1.188018555492090E-008
   65.0602750000000        -1.198608002879864E-008
   65.1733250000000        -1.209365154634194E-008
   65.2863750000000        -1.220299383436675E-008
   65.3994250000000        -1.231416851264185E-008
   65.5124750000000        -1.242720103422331E-008