 -0.847875000000000        -6.387407380220083E-018
 -0.734825000000000        -6.381770672068916E-018
 -0.621775000000000        -6.363266151926210E-018
 -0.508725000000000        -6.287917749202168E-018
 -0.395675000000000        -5.965342854986264E-018
 -0.282625000000000        -4.719784250614243E-018
 -0.169575000000000        -6.015241467646314E-019
 -5.652500000000005E-002    1.112957410445928E-017
  5.652499999999994E-002    4.011878941801415E-017
  0.169575000000000         1.027740516796928E-016
  0.282625000000000         2.215259314188388E-016
  0.395675000000000         4.206869961784521E-016
  0.508725000000000         7.156608704418258E-016
  0.621775000000000         1.095064609290456E-015
  0.734825000000000         1.494803473304717E-015
  0.847875000000000         1.767468439240362E-015
  0.960925000000000         1.644425507692145E-015
   1.07397500000000         6.838819093563227E-016
   1.18702500000000        -1.779936042734039E-015
   1.30007500000000        -6.690880159124598E-015
   1.41312500000000        -1.534060978492697E-014
   1.52617500000000        -2.943489003451549E-014
   1.63922500000000        -5.116744421702176E-014
   1.75227500000000        -8.329275996352640E-014
   1.86532500000000        -1.292091080303299E-013
   1.97837500000000        -1.930513331070418E-013
   2.09142500000000        -2.797268295837745E-013
   2.20447500000000        -3.950089087678710E-013
   2.31752500000000        -5.455916933303316E-013
   2.43057500000000        -7.391319179689011E-013
   2.54362500000000        -9.843201902249762E-013
   2.65667500000000        -1.290898982676209E-012
   2.76972500000000        -1.669659737656427E-012
   2.88277500000000        -2.132443394857168E-012
   2.99582500000000        -2.692126135607980E-012
   3.10887500000000        -3.362554517399936E-012
   3.22192500000000        -4.158494426389151E-012
   3.33497500000000        -5.095547256412734E-012
   3.44802500000000        -6.190058329289481E-012
   3.56107500000000        -7.459014312594063E-012
   3.67412500000000        -8.919876063281129E-012
   3.78717500000000        -1.059049739556775E-011
   3.90022500000000        -1.248892639015962E-011
   4.01327500000000        -1.463331924994598E-011
   4.12632500000000        -1.704181197094379E-011
   4.23937500000000        -1.973232644307674E-011
   4.35242500000000        -2.272252108856837E-011
   4.46547500000000        -2.602964273433409E-011
   4.57852500000000        -2.967052183081352E-011
   4.69157500000000        -3.366149274493923E-011
   4.80462500000000        -3.801838167298384E-011
   4.91767500000000        -4.275654195719697E-011
   5.03072500000000        -4.789088783757183E-011
   5.14377500000000        -5.343598251779274E-011
   5.25682500000000        -5.940616448959245E-011
   5.36987500000000        -6.581564212073588E-011
   5.48292500000000        -7.267864883775831E-011
   5.59597500000000        -8.000960567761942E-011
   5.70902500000000        -8.782329835811653E-011
   5.82207500000000        -9.613501367521650E-011
   5.93512500000000        -1.049606376719817E-010
   6.04817500000000        -1.143168765216721E-010
   6.16122500000000        -1.242212793721614E-010
   6.27427500000000        -1.346922275516198E-010
   6.38732500000000        -1.457489270769604E-010
   6.50037500000000        -1.574113594859081E-010
   6.61342500000000        -1.697001877533144E-010
   6.72647500000000        -1.826364569209648E-010
   6.83952500000000        -1.962414447421140E-010
   6.95257500000000        -2.105362221359241E-010
   7.06562500000000        -2.255415091182121E-010
   7.17867500000000        -2.412770931676526E-010
   7.29172500000000        -2.577614362699797E-010
   7.40477500000000        -2.750112723681813E-010
   7.51782500000000        -2.930412171446066E-010
   7.63087500000000        -3.118633140927048E-010
   7.74392500000000        -3.314866524479467E-010
   7.85697500000000        -3.519171737178565E-010
   7.97002500000000        -3.731573250642817E-010
   8.08307500000000        -3.952058731452937E-010
   8.19612500000000        -4.180579418706973E-010
   8.30917500000000        -4.417049855464030E-010
   8.42222500000000        -4.661349675084451E-010
   8.53527500000000        -4.913325300276979E-010
   8.64832500000000        -5.172794121520607E-010
   8.76137500000000        -5.439548334277044E-010
   8.87442500000000        -5.713359888917595E-010
   8.98747500000000        -5.993986246736314E-010
   9.10052500000000        -6.281175849533061E-010
   9.21357500000000        -6.574674292613149E-010
   9.32662500000000        -6.874230407425302E-010
   9.43967500000000        -7.179601782803497E-010
   9.55272500000000        -7.490559193765888E-010
   9.66577500000000        -7.806891107112853E-010
   9.77882500000000        -8.128406805906326E-010
   9.89187500000000        -8.454938583645167E-010
   10.0049250000000        -8.786342572530631E-010
   10.1179750000000        -9.122498229780542E-010
   10.2310250000000        -9.463307470238563E-010
   10.3440750000000        -9.808692043722946E-010
   10.4571250000000        -1.015858966676086E-009
   10.5701750000000        -1.051295033211681E-009
   10.6832250000000        -1.087173140216882E-009
   10.7962750000000        -1.123489290265605E-009
   10.9093250000000        -1.160239214605799E-009
   11.0223750000000        -1.197417944382141E-009
   11.1354250000000        -1.235019352450032E-009
   11.2484750000000        -1.273035845120531E-009
   11.3615250000000        -1.311458135122948E-009
   11.4745750000000        -1.350275066654237E-009
   11.5876250000000        -1.389473642671767E-009
   11.7006750000000        -1.429039129795874E-009
   11.8137250000000        -1.468955337559871E-009
   11.9267750000000        -1.509204933383096E-009
   12.0398250000000        -1.549769887857984E-009
   12.1528750000000        -1.590632049941296E-009
   12.2659250000000        -1.631773692333164E-009
   12.3789750000000        -1.673178093305869E-009
   12.4920250000000        -1.714830116975813E-009
   12.6050750000000        -1.756716771255496E-009
   12.7181250000000        -1.798827643101177E-009
   12.8311750000000        -1.841155291470310E-009
   12.9442250000000        -1.883695406678941E-009
   13.0572750000000        -1.926447041617764E-009
   13.1703250000000        -1.969412430981998E-009
   13.2833750000000        -2.012596843830868E-009
   13.3964250000000        -2.056008250163048E-009
   13.5094750000000        -2.099656787774784E-009
   13.6225250000000        -2.143554204724329E-009
   13.7355750000000        -2.187713118215513E-009
   13.8486250000000        -2.232146305342229E-009
   13.9616750000000        -2.276865907156814E-009
   14.0747250000000        -2.321882710263252E-009
   14.1877750000000        -2.367205297725814E-009
   14.3008250000000        -2.412839546969085E-009
   14.4138750000000        -2.458787985659373E-009
   14.5269250000000        -2.505049447113506E-009
   14.6399750000000        -2.551618839778113E-009
   14.7530250000000        -2.598487073746601E-009
   14.8660750000000        -2.645641073817567E-009
   14.9791250000000        -2.693064138346576E-009
   15.0921750000000        -2.740736334299818E-009
   15.2052250000000        -2.788634998066561E-009
   15.3182750000000        -2.836735469632468E-009
   15.4313250000000        -2.885011854063082E-009
   15.5443750000000        -2.933437804817877E-009
   15.6574250000000        -2.981987318478125E-009
   15.7704750000000        -3.030635622160435E-009
   15.8835250000000        -3.079359826880403E-009
   15.9965750000000        -3.128139696438710E-009
   16.1096250000000        -3.176958122560071E-009
   16.2226750000000        -3.225801619120401E-009
   16.3357250000000        -3.274660572641099E-009
   16.4487750000000        -3.323529375855676E-009
   16.5618250000000        -3.372406457400349E-009
   16.6748750000000        -3.421294066409173E-009
   16.7879250000000        -3.470198026623982E-009
   16.9009750000000        -3.519127336957527E-009
   17.0140250000000        -3.568093743597337E-009
   17.1270750000000        -3.617111160159095E-009
   17.2401250000000        -3.666195161555944E-009
   17.3531750000000        -3.715362449699019E-009
   17.4662250000000        -3.764630295087230E-009
   17.5792750000000        -3.814016163879798E-009
   17.6923250000000        -3.863537283946925E-009
   17.8053750000000        -3.913210355011150E-009
   17.9184250000000        -3.963051462761706E-009
   18.0314750000000        -4.013075930551381E-009
   18.1445250000000        -4.063298405831247E-009
   18.2575750000000        -4.113733023680076E-009
   18.3706250000000        -4.164393595085141E-009
   18.4836750000000        -4.215293893301760E-009
   18.5967250000000        -4.266448077271987E-009
   18.7097750000000        -4.317871008981135E-009
   18.8228250000000        -4.369578653214014E-009
   18.9358750000000        -4.421588406761125E-009
   19.0489250000000        -4.473919466015824E-009
   19.1619750000000        -4.526593062170911E-009
   19.2750250000000        -4.579632608635952E-009
   19.3880750000000        -4.633063834411735E-009
   19.5011250000000        -4.686914736912253E-009
   19.6141750000000        -4.741215481756015E-009
   19.7272250000000        -4.795998212348164E-009
   19.8402750000000        -4.851296716282194E-009
   19.9533250000000        -4.907146059347435E-009
   20.0663750000000        -4.963582111753520E-009
   20.1794250000000        -5.020641069295980E-009
   20.2924750000000        -5.078358869022186E-009
   20.4055250000000        -5.136770669288724E-009
   20.5185750000000        -5.195910230298639E-009
   20.6316250000000        -5.255809394821026E-009
   20.7446750000000        -5.316497564742567E-009
   20.8577250000000        -5.378001247758615E-009
   20.9707750000000        -5.440343652841220E-009
   21.0838250000000        -5.503544356572471E-009
   21.1968750000000        -5.567619009491969E-009
   21.3099250000000        -5.632579208257914E-009
   21.4229750000000        -5.698432365232177E-009
   21.5360250000000        -5.765181692055629E-009
   21.6490750000000        -5.832826311826491E-009
   21.7621250000000        -5.901361335684153E-009
   21.8751750000000        -5.970778148542856E-009
   21.9882250000000        -6.041064615345973E-009
   22.1012750000000        -6.112205481233820E-009
   22.2143250000000        -6.184182668116919E-009
   22.3273750000000        -6.256975794927353E-009
   22.4404250000000        -6.330562534349104E-009
   22.5534750000000        -6.404919123222723E-009
   22.6665250000000        -6.480020816214129E-009
   22.7795750000000        -6.555842444942255E-009
   22.8926250000000        -6.632358892764341E-009
   23.0056750000000        -6.709545527560257E-009
   23.1187250000000        -6.787378732485747E-009
   23.2317750000000        -6.865836279285492E-009
   23.3448250000000        -6.944897803729977E-009
   23.4578750000000        -7.024545121195983E-009
   23.5709250000000        -7.104762570808020E-009
   23.6839750000000        -7.185537294561335E-009
   23.7970250000000        -7.266859417372448E-009
   23.9100750000000        -7.348722269076819E-009
   24.0231250000000        -7.431122446753777E-009
   24.1361750000000        -7.514059816503421E-009
   24.2492250000000        -7.597537466234396E-009
   24.3622750000000        -7.681561678982424E-009
   24.4753250000000        -7.766141748264429E-009
   24.5883750000000        -7.851289824910341E-009
   24.7014250000000        -7.937020662536912E-009
   24.8144750000000        -8.023351277265002E-009
   24.9275250000000        -8.110300726679231E-009
   25.0405750000000        -8.197889741975836E-009
   25.1536250000000        -8.286140403513639E-009
   25.2666750000000        -8.375075813102119E-009
   25.3797250000000        -8.464719743061084E-009
   25.4927750000000        -8.555096290778579E-009
   25.6058250000000        -8.646229590890022E-009
   25.7188750000000        -8.738143483495515E-009
   25.8319250000000        -8.830861221412412E-009
   25.9449750000000        -8.924405255162382E-009
   26.0580250000000        -9.018796935279466E-009
   26.1710750000000        -9.114056255227775E-009
   26.2841250000000        -9.210201610464876E-009
   26.3971750000000        -9.307249549129526E-009
   26.5102250000000        -9.405214627894879E-009
   26.6232750000000        -9.504109058446784E-009
   26.7363250000000        -9.603942534372153E-009
   26.8493750000000        -9.704721960617040E-009
   26.9624250000000        -9.806451239163432E-009
   27.0754750000000        -9.909131021089894E-009
   27.1885250000000        -1.001275845812234E-008
   27.3015750000000        -1.011732701120276E-008
   27.4146250000000        -1.022282626970749E-008
   27.5276750000000        -1.032924180315210E-008
   27.6407250000000        -1.043655507453748E-008
   27.7537750000000        -1.054474340968644E-008
   27.8668250000000        -1.065378001655319E-008
   27.9798750000000        -1.076363412701774E-008
   28.0929250000000        -1.087427117591044E-008
   28.2059750000000        -1.098565317452926E-008
   28.3190250000000        -1.109773904525193E-008
   28.4320750000000        -1.121048515382459E-008
   28.5451250000000        -1.132384584042162E-008
   28.6581750000000        -1.143777411112252E-008
   28.7712250000000        -1.155222227725592E-008
   28.8842750000000        -1.166714276813272E-008
   28.9973250000000        -1.178248884810989E-008
   29.1103750000000        -1.189821544662409E-008
   29.2234250000000        -1.201427982677282E-008
   29.3364750000000        -1.213064234072986E-008
   29.4495250000000        -1.224726700956624E-008
   29.5625750000000        -1.236412207643738E-008
   29.6756250000000        -1.248118046095755E-008
   29.7886750000000        -1.259842003950357E-008
   29.9017250000000        -1.271582386378003E-008
   30.0147750000000        -1.283338015103930E-008
   30.1278250000000        -1.295108228439893E-008
   30.2408750000000        -1.306892863096979E-008
   30.3539250000000        -1.318692214008442E-008
   30.4669750000000        -1.330507002899853E-008
   30.5800250000000        -1.342338327728059E-008
   30.6930750000000        -1.354187610770066E-008
   30.8061250000000        -1.366056541948635E-008
   30.9191750000000        -1.377947024565880E-008
   31.0322250000000        -1.389861114467869E-008
   31.1452750000000        -1.401800968368404E-008
   31.2583250000000        -1.413768803482401E-008
   31.3713750000000        -1.425766850510136E-008
   31.4844250000000        -1.437797328722754E-008
   31.5974750000000        -1.449862411847325E-008
   31.7105250000000        -1.461964223281073E-008
   31.8235750000000        -1.474104823006113E-008
   31.9366250000000        -1.486286208247198E-008
   32.0496750000000        -1.498510321918945E-008
   32.1627250000000        -1.510779063346757E-008
   32.2757750000000        -1.523094303741717E-008
   32.3888250000000        -1.535457902458267E-008
   32.5018750000000        -1.547871723389079E-008
   32.6149250000000        -1.560337652596104E-008
   32.7279750000000        -1.572857615240550E-008
   32.8410250000000        -1.585433572578192E-008
   32.9540750000000        -1.598067539663449E-008
   33.0671250000000        -1.610761575811715E-008
   33.1801750000000        -1.623517783897322E-008
   33.2932250000000        -1.636338301120632E-008
   33.4062750000000        -1.649225275129068E-008
   33.5193250000000        -1.662180849959373E-008
   33.6323750000000        -1.675207147640642E-008
   33.7454250000000        -1.688306235791240E-008
   33.8584750000000        -1.701480110926545E-008
   33.9715250000000        -1.714730672299881E-008
   34.0845750000000        -1.728059699152322E-008
   34.1976250000000        -1.741468837153425E-008
   34.3106750000000        -1.754959577995443E-008
   34.4237250000000        -1.768533254803209E-008
   34.5367750000000        -1.782191033598239E-008
   34.6498250000000        -1.795933912541404E-008
   34.7628750000000        -1.809762724890651E-008
   34.8759250000000        -1.823678149768775E-008
   34.9889750000000        -1.837680718057276E-008
   35.1020250000000        -1.851770833755717E-008
   35.2150750000000        -1.865948780334840E-008
   35.3281250000000        -1.880214742363207E-008
   35.4411750000000        -1.894568820274332E-008
   35.5542250000000        -1.909011044966395E-008
   35.6672750000000        -1.923541389450828E-008
   35.7803250000000        -1.938159784138254E-008
   35.8933750000000        -1.952866125612944E-008
   36.0064250000000        -1.967660278300239E-008
   36.1194750000000        -1.982542086198963E-008
   36.2325250000000        -1.997511372999258E-008
   36.3455750000000        -2.012567944559962E-008
   36.4586250000000        -2.027711589125424E-008
   36.5716750000000        -2.042942082747049E-008
   36.6847250000000        -2.058259192597229E-008
   36.7977750000000        -2.073662684553522E-008
   36.9108250000000        -2.089152325561992E-008
   37.0238750000000        -2.104727896431719E-008
   37.1369250000000        -2.120389210021262E-008
   37.2499750000000        -2.136136131726571E-008
   37.3630250000000        -2.151968597393199E-008
   37.4760750000000        -2.167886642386870E-008
   37.5891250000000        -2.183890426701606E-008
   37.7021750000000        -2.199980271073381E-008
   37.8152250000000        -2.216156684816531E-008
   37.9282750000000        -2.232420395066899E-008
   38.0413250000000        -2.248772375543115E-008
   38.1543750000000        -2.265213877444158E-008
   38.2674250000000        -2.281746444546970E-008
   38.3804750000000        -2.298371930788603E-008
   38.4935250000000        -2.315092506913507E-008
   38.6065750000000        -2.331910660679447E-008
   38.7196250000000        -2.348829189500467E-008
   38.8326750000000        -2.365851180835422E-008
   38.9457250000000        -2.382979983099585E-008
   39.0587750000000        -2.400219169787089E-008
   39.1718250000000        -2.417572493691381E-008
   39.2848750000000        -2.435043829809216E-008
   39.3979250000000        -2.452637116579127E-008
   39.5109750000000        -2.470356288292237E-008
   39.6240250000000        -2.488205202526363E-008
   39.7370750000000        -2.506187566939328E-008
   39.8501250000000        -2.524306865999553E-008
   39.9631750000000        -2.542566287959614E-008
   40.0762250000000        -2.560968655907951E-008
   40.1892750000000        -2.579516365708017E-008
   40.3023250000000        -2.598211329282598E-008
   40.4153750000000        -2.617054925916992E-008
   40.5284250000000        -2.636047969536990E-008
   40.6414750000000        -2.655190678607754E-008
   40.7545250000000        -2.674482664937483E-008
   40.8675750000000        -2.693922931266997E-008
   40.9806250000000        -2.713509888567527E-008
   41.0936750000000        -2.733241375110164E-008
   41.2067250000000        -2.753114698477698E-008
   41.3197750000000        -2.773126683088112E-008
   41.4328250000000        -2.793273727426423E-008
   41.5458750000000        -2.813551875793314E-008
   41.6589250000000        -2.833956889304035E-008
   41.7719750000000        -2.854484326607469E-008
   41.8850250000000        -2.875129627130585E-008
   41.9980750000000        -2.895888195024707E-008
   42.1111250000000        -2.916755478466229E-008
   42.2241750000000        -2.937727054390650E-008
   42.3372250000000        -2.958798702406109E-008
   42.4502750000000        -2.979966473844587E-008
   42.5633250000000        -3.001226750726815E-008
   42.6763750000000        -3.022576295855281E-008
   42.7894250000000        -3.044012295092488E-008
   42.9024750000000        -3.065532395224810E-008
   43.0155250000000        -3.087134712379933E-008
   43.1285750000000        -3.108817843632976E-008
   43.2416250000000        -3.130580868108258E-008
   43.3546750000000        -3.152423336203248E-008
   43.4677250000000        -3.174345247193085E-008
   43.5807750000000        -3.196347025255856E-008
   43.6938250000000        -3.218429479059040E-008
   43.8068750000000        -3.240593770280336E-008
   43.9199250000000        -3.262841370345265E-008
   44.0329750000000        -3.285174019517151E-008
   44.1460250000000        -3.307593676022943E-008
   44.2590750000000        -3.330102474579698E-008
   44.3721250000000        -3.352702684635237E-008
   44.4851750000000        -3.375396685936797E-008
   44.5982250000000        -3.398186907240199E-008
   44.7112750000000        -3.421075806834871E-008
   44.8243250000000        -3.444065846388892E-008
   44.9373750000000        -3.467159458682790E-008
   45.0504250000000        -3.490359024677716E-008
   45.1634750000000        -3.513666853148566E-008
   45.2765250000000        -3.537085160969948E-008
   45.3895750000000        -3.560616057675844E-008
   45.5026250000000        -3.584261526528029E-008
   45.6156750000000        -3.608023405413314E-008
   45.7287250000000        -3.631903369976347E-008
   45.8417750000000        -3.655902917105435E-008
   45.9548250000000        -3.680023341755916E-008
   46.0678750000000        -3.704265719682840E-008
   46.1809250000000        -3.728630888026327E-008
   46.2939750000000        -3.753119433062202E-008
   46.4070250000000        -3.777731660760247E-008
   46.5200750000000        -3.802467581875521E-008
   46.6331250000000        -3.827326912175062E-008
   46.7461750000000        -3.852309053142278E-008
   46.8592250000000        -3.877413091728341E-008
   46.9722750000000        -3.902637809306062E-008
   47.0853250000000        -3.927981691003256E-008
   47.1983750000000        -3.953442942803996E-008
   47.3114250000000        -3.979019525655078E-008
   47.4244750000000        -4.004709187599669E-008
   47.5375250000000        -4.030509513405897E-008
   47.6505750000000        -4.056417972187848E-008
   47.7636250000000        -4.082431979698961E-008
   47.8766750000000        -4.108548959542235E-008
   47.9897250000000        -4.134766410561856E-008
   48.1027750000000        -4.161081976623189E-008
   48.2158250000000        -4.187493523681319E-008
   48.3288750000000        -4.213999192406818E-008
   48.4419250000000        -4.240597471689360E-008
   48.5549750000000        -4.267287247708808E-008
   48.6680250000000        -4.294067852673076E-008
   48.7810750000000        -4.320939098956949E-008
   48.8941250000000        -4.347901304080460E-008
   49.0071750000000        -4.374955306548336E-008
   49.1202250000000        -4.402102461523945E-008
   49.2332750000000        -4.429344625912364E-008
   49.3463250000000        -4.456684136926701E-008
   49.4593750000000        -4.484123769626619E-008
   49.5724250000000        -4.511666691575839E-008
   49.6854750000000        -4.539316406394112E-008
   49.7985250000000        -4.567076686920164E-008
   49.9115750000000        -4.594951507038784E-008
   50.0246250000000        -4.622944975548869E-008
   50.1376750000000        -4.651061261566124E-008
   50.2507250000000        -4.679304529730224E-008
   50.3637750000000        -4.707678877814557E-008
   50.4768250000000        -4.736188277877537E-008
   50.5898750000000        -4.764836529466550E-008
   50.7029250000000        -4.793627226177205E-008
   50.8159750000000        -4.822563718677951E-008
   50.9290250000000        -4.851649109964308E-008
   51.0420750000000        -4.880886242905263E-008
   51.1551250000000        -4.910277707299276E-008
   51.2681750000000        -4.939825852694474E-008
   51.3812250000000        -4.969532816607344E-008
   51.4942750000000        -4.999400548095674E-008
   51.6073250000000        -5.029430848843646E-008
   51.7203750000000        -5.059625407029884E-008
   51.8334250000000        -5.089985842886469E-008
   51.9464750000000        -5.120513735464320E-008
   52.0595250000000        -5.151210665275846E-008
   52.1725750000000        -5.182078238910705E-008
   52.2856250000000        -5.213118117097870E-008
   52.3986750000000        -5.244332023467768E-008
   52.5117250000000        -5.275721754116760E-008
   52.6247750000000        -5.307289173158780E-008
   52.7378250000000        -5.339036204548850E-008
   52.8508750000000        -5.370964803231853E-008
   52.9639250000000        -5.403076931985518E-008
   53.0769750000000        -5.435374524623822E-008
   53.1900250000000        -5.467859446312644E-008
   53.3030750000000        -5.500533445641111E-008
   53.4161250000000        -5.533398109897043E-008
   53.5291750000000        -5.566454825396791E-008
   53.6422250000000        -5.599704725370891E-008
   53.7552750000000        -5.633148660964683E-008
   53.8683250000000        -5.666787167467166E-008
   53.9813750000000        -5.700620439985676E-008
   54.0944250000000        -5.734648325620884E-008
   54.2074750000000        -5.768870311936859E-008
   54.3205250000000        -5.803285540252188E-008
   54.4335750000000        -5.837892830328324E-008
   54.5466250000000        -5.872690696876217E-008
   54.6596750000000        -5.907677397586514E-008
   54.7727250000000        -5.942850983762430E-008
   54.8857750000000        -5.978209348705913E-008
   54.9988250000000        -6.013750291448230E-008
   55.1118750000000        -6.049471577538797E-008
   55.2249250000000        -6.085371003237285E-008
   55.3379750000000        -6.121446454116082E-008
   55.4510250000000        -6.157695963974734E-008
   55.5640750000000        -6.194117766219651E-008
   55.6771250000000        -6.230710337965391E-008
   55.7901750000000        -6.267472436574925E-008
   55.9032250000000        -6.304403114089939E-008
   56.0162750000000        -6.341501735647204E-008
   56.1293250000000        -6.378767980990554E-008
   56.2423750000000        -6.416201837284790E-008
   56.3554250000000        -6.453803584675402E-008
   56.4684750000000        -6.491573766454508E-008
   56.5815250000000        -6.529513153466057E-008
   56.6945750000000        -6.567622711110530E-008
   56.8076250000000        -6.605903557694056E-008
   56.9206750000000        -6.644356922604037E-008
   57.0337250000000        -6.682984107134503E-008
   57.1467750000000        -6.721786442902289E-008
   57.2598250000000        -6.760765268308608E-008
   57.3728750000000        -6.799921900152164E-008
   57.4859250000000        -6.839257612516362E-008
   57.5989750000000        -6.878773629416326E-008
   57.7120250000000        -6.918471119714585E-008
   57.8250750000000        -6.958351202843249E-008
   57.9381250000000        -6.998414957885345E-008
   58.0511750000000        -7.038663434854731E-008
   58.1642250000000        -7.079097676454166E-008
   58.2772750000000        -7.119718731501752E-008
   58.3903250000000        -7.160527675379707E-008
   58.5033750000000        -7.201525617030633E-008
   58.6164250000000        -7.242713716403632E-008
   58.7294750000000        -7.284093179770929E-008
   58.8425250000000        -7.325665257983033E-008
   58.9555750000000        -7.367431230278983E-008
   59.0686250000000        -7.409392383234604E-008
   59.1816750000000        -7.451549980733626E-008
   59.2947250000000        -7.493905224403915E-008
   59.4077750000000        -7.536459213645361E-008
   59.5208250000000        -7.579212898255267E-008
   59.6338750000000        -7.622167032156253E-008
   59.7469250000000        -7.665322128191344E-008
   59.8599750000000        -7.708678417739974E-008
   59.9730250000000        -7.752235816435536E-008
   60.0860750000000        -7.795993896742456E-008
   60.1991250000000        -7.839951881189885E-008
   60.3121750000000        -7.884108642062104E-008
   60.4252250000000        -7.928462716862960E-008
   60.5382750000000        -7.973012335484065E-008
   60.6513250000000        -8.017755469268466E-008
   60.7643750000000        -8.062689884251020E-008
   60.8774250000000        -8.107813204325883E-008
   60.9904750000000        -8.153122993626477E-008
   61.1035250000000        -8.198616827014279E-008
   61.2165750000000        -8.244292371125476E-008
   61.3296250000000        -8.290147452664687E-008
   61.4426750000000        -8.336180129288305E-008
   61.5557250000000        -8.382388745546101E-008
   61.6687750000000        -8.428771956980309E-008
   61.7818250000000        -8.475328763565287E-008
   61.8948750000000        -8.522058495646523E-008
   62.0079250000000        -8.568960805496110E-008
   62.1209750000000        -8.616035626926107E-008
   62.2340250000000        -8.663283117545540E-008
   62.3470750000000        -8.710703588363011E-008
   62.4601250000000        -8.758297426590369E-008
   62.5731750000000        -8.806065010183576E-008
   62.6862250000000        -8.854006635261598E-008
   62.7992750000000        -8.902122446445500E-008
   62.9123250000000        -8.950412388844796E-008
   63.0253750000000        -8.998876186533221E-008
   63.1384250000000        -9.047513350165161E-008
   63.2514750000000        -9.096323227098616E-008
   63.3645250000000        -9.145305083587561E-008
   63.4775750000000        -9.194458243821891E-008
   63.5906250000000        -9.243782263321238E-008
   63.7036750000000        -9.293277144348566E-008
   63.8167250000000        -9.342943583829768E-008
   63.9297750000000        -9.392783253277662E-008
   64.0428250000000        -9.442799084994671E-008
   64.1558750000000        -9.492995555201064E-008
   64.2689250000000        -9.543378961457497E-008
   64.3819750000000        -9.593957654911017E-008
   64.4950250000000        -9.644742216701507E-008
   64.6080750000000        -9.695745566654045E-008
   64.7211250000000        -9.746982976502522E-008
   64.8341750000000        -9.798471967452462E-008
   64.9472250000000        -9.850232089486711E-008
   65.0602750000000        -9.902284559564778E-008
   65.1733250000000        -9.954651759801485E-008
   65.2863750000000        -1.000735659672978E-007
   65.3994250000000        -1.006042172344477E-007
   65.5124750000000        -1.011386864589541E-007