 -0.847875000000000        -2.044628946410309E-024
 -0.734825000000000        -8.965360371762004E-024
 -0.621775000000000        -1.997920657337571E-023
 -0.508725000000000        -3.046890127336133E-023
 -0.395675000000000        -3.517266239127318E-023
 -0.282625000000000        -2.834380623775968E-023
 -0.169575000000000         1.361588878126458E-023
 -5.652500000000005E-002    1.692544499997367E-022
  5.652499999999994E-002    6.824094801263591E-022
  0.169575000000000         2.069223123241884E-021
  0.282625000000000         5.976601953234854E-021
  0.395675000000000         1.551192490800163E-020
  0.508725000000000         3.641156390318772E-020
  0.621775000000000         7.800245880380661E-020
  0.734825000000000         1.551515937627730E-019
  0.847875000000000         2.884336211178889E-019
  0.960925000000000         5.020394912341704E-019
   1.07397500000000         8.304412067319615E-019
   1.18702500000000         1.318650428969547E-018
   1.30007500000000         2.017845558503271E-018
   1.41312500000000         2.986313343125869E-018
   1.52617500000000         4.280825507057772E-018
   1.63922500000000         5.964822184157259E-018
   1.75227500000000         8.106665517046535E-018
   1.86532500000000         1.076953931771695E-017
   1.97837500000000         1.402421328080378E-017
   2.09142500000000         1.792404638305393E-017
   2.20447500000000         2.252364370647080E-017
   2.31752500000000         2.785472583668629E-017
   2.43057500000000         3.395457518918419E-017
   2.54362500000000         4.083314382049536E-017
   2.65667500000000         4.852254586131540E-017
   2.76972500000000         5.701900672300565E-017
   2.88277500000000         6.631313012143250E-017
   2.99582500000000         7.639396502325033E-017
   3.10887500000000         8.727004860768000E-017
   3.22192500000000         9.890763994049339E-017
   3.33497500000000         1.112961322867629E-016
   3.44802500000000         1.244255159075276E-016
   3.56107500000000         1.383049458136612E-016
   3.67412500000000         1.529589518878592E-016
   3.78717500000000         1.684370974942927E-016
   3.90022500000000         1.848099792411545E-016
   4.01327500000000         2.021961915687737E-016
   4.12632500000000         2.207490198678949E-016
   4.23937500000000         2.406725112766939E-016
   4.35242500000000         2.622218647877195E-016
   4.46547500000000         2.856336881133257E-016
   4.57852500000000         3.112175531500383E-016
   4.69157500000000         3.393254691543534E-016
   4.80462500000000         3.703337346909958E-016
   4.91767500000000         4.046466836399838E-016
   5.03072500000000         4.426764256943032E-016
   5.14377500000000         4.848494626068257E-016
   5.25682500000000         5.315554271913355E-016
   5.36987500000000         5.831778423026719E-016
   5.48292500000000         6.400763606135492E-016
   5.59597500000000         7.025399430423608E-016
   5.70902500000000         7.708103754104870E-016
   5.82207500000000         8.450410738456272E-016
   5.93512500000000         9.253122128872635E-016
   6.04817500000000         1.011645692961481E-015
   6.16122500000000         1.103960938156033E-015
   6.27427500000000         1.202055262529715E-015
   6.38732500000000         1.305671351935347E-015
   6.50037500000000         1.414409788524280E-015
   6.61342500000000         1.527794109466116E-015
   6.72647500000000         1.645210352565725E-015
   6.83952500000000         1.766016072444913E-015
   6.95257500000000         1.889428927086475E-015
   7.06562500000000         2.014751770895061E-015
   7.17867500000000         2.141193061269277E-015
   7.29172500000000         2.267952605242667E-015
   7.40477500000000         2.394294084396391E-015
   7.51782500000000         2.519519327139785E-015
   7.63087500000000         2.643021860297905E-015
   7.74392500000000         2.764295192166358E-015
   7.85697500000000         2.883023569549438E-015
   7.97002500000000         2.999020205905378E-015
   8.08307500000000         3.112227829916157E-015
   8.19612500000000         3.222798652766226E-015
   8.30917500000000         3.331107892347529E-015
   8.42222500000000         3.437719047799305E-015
   8.53527500000000         3.543361499189306E-015
   8.64832500000000         3.648922976514035E-015
   8.76137500000000         3.755425408510173E-015
   8.87442500000000         3.864016335241002E-015
   8.98747500000000         3.975898049146303E-015
   9.10052500000000         4.092238139265268E-015
   9.21357500000000         4.214205932869404E-015
   9.32662500000000         4.342872465793218E-015
   9.43967500000000         4.479189686938547E-015
   9.55272500000000         4.623878327929990E-015
   9.66577500000000         4.777408033575425E-015
   9.77882500000000         4.939971859119658E-015
   9.89187500000000         5.111424142324146E-015
   10.0049250000000         5.291232962240255E-015
   10.1179750000000         5.478537001467528E-015
   10.2310250000000         5.672103225314167E-015
   10.3440750000000         5.870350945717629E-015
   10.4571250000000         6.071416405846370E-015
   10.5701750000000         6.273167975286369E-015
   10.6832250000000         6.473293480960203E-015
   10.7962750000000         6.669401568152009E-015
   10.9093250000000         6.859110672181862E-015
   11.0223750000000         7.040084981396114E-015
   11.1354250000000         7.210181807210139E-015
   11.2484750000000         7.367530965019963E-015
   11.3615250000000         7.510627255770882E-015
   11.4745750000000         7.638426643572567E-015
   11.5876250000000         7.750370260222556E-015
   11.7006750000000         7.846472376285481E-015
   11.8137250000000         7.927331474579904E-015
   11.9267750000000         7.994161686937189E-015
   12.0398250000000         8.048722102740646E-015
   12.1528750000000         8.093335987009378E-015
   12.2659250000000         8.130804336419350E-015
   12.3789750000000         8.164307142193235E-015
   12.4920250000000         8.197287579821749E-015
   12.6050750000000         8.233345237646809E-015
   12.7181250000000         8.276107988722492E-015
   12.8311750000000         8.329114058868975E-015
   12.9442250000000         8.395614478003808E-015
   13.0572750000000         8.478549441023305E-015
   13.1703250000000         8.580330110616464E-015
   13.2833750000000         8.702784095299283E-015
   13.3964250000000         8.847084912839094E-015
   13.5094750000000         9.013669334790118E-015
   13.6225250000000         9.202219524009079E-015
   13.7355750000000         9.411677897682915E-015
   13.8486250000000         9.640311672303554E-015
   13.9616750000000         9.885751478265906E-015
   14.0747250000000         1.014518833378686E-014
   14.1877750000000         1.041533319179928E-014
   14.3008250000000         1.069273020505294E-014
   14.4138750000000         1.097379286589551E-014
   14.5269250000000         1.125502758030498E-014
   14.6399750000000         1.153325046553188E-014
   14.7530250000000         1.180566513944379E-014
   14.8660750000000         1.207003270535484E-014
   14.9791250000000         1.232481683747603E-014
   15.0921750000000         1.256926433423509E-014
   15.2052250000000         1.280345169496773E-014
   15.3182750000000         1.302833656894356E-014
   15.4313250000000         1.324576761613108E-014
   15.5443750000000         1.345836573974692E-014
   15.6574250000000         1.366942012811238E-014
   15.7704750000000         1.388281464752279E-014
   15.8835250000000         1.410277379294714E-014
   15.9965750000000         1.433375360981930E-014
   16.1096250000000         1.458022115937897E-014
   16.2226750000000         1.484640431990909E-014
   16.3357250000000         1.513612365076797E-014
   16.4487750000000         1.545259117665523E-014
   16.5618250000000         1.579823919303272E-014
   16.6748750000000         1.617458455361082E-014
   16.7879250000000         1.658209645118616E-014
   16.9009750000000         1.702017677969032E-014
   17.0140250000000         1.748716752347745E-014
   17.1270750000000         1.798033793630390E-014
   17.2401250000000         1.849603936299577E-014
   17.3531750000000         1.902989047081646E-014
   17.4662250000000         1.957679428211217E-014
   17.5792750000000         2.013134249174811E-014
   17.6923250000000         2.068796719955016E-014
   17.8053750000000         2.124116688274594E-014
   17.9184250000000         2.178582471783727E-014
   18.0314750000000         2.231735679526489E-014
   18.1445250000000         2.283191207493988E-014
   18.2575750000000         2.332660432898915E-014
   18.3706250000000         2.379960977727174E-014
   18.4836750000000         2.425021139884853E-014
   18.5967250000000         2.467878906907237E-014
   18.7097750000000         2.508683561691060E-014
   18.8228250000000         2.547681766632815E-014
   18.9358750000000         2.585200745391277E-014
   19.0489250000000         2.621632405439236E-014
   19.1619750000000         2.657402820488252E-014
   19.2750250000000         2.692953370023174E-014
   19.3880750000000         2.728703786139924E-014
   19.5011250000000         2.765032041938311E-014
   19.6141750000000         2.802247606508279E-014
   19.7272250000000         2.840573170690008E-014
   19.8402750000000         2.880127367167160E-014
   19.9533250000000         2.920911161283538E-014
   20.0663750000000         2.962805304134778E-014
   20.1794250000000         3.005572520405160E-014
   20.2924750000000         3.048862349654230E-014
   20.4055250000000         3.092227509013375E-014
   20.5185750000000         3.135135591817588E-014
   20.6316250000000         3.177001735982207E-014
   20.7446750000000         3.217210336473017E-014
   20.8577250000000         3.255145416331099E-014
   20.9707750000000         3.290225679383412E-014
   21.0838250000000         3.321930332248227E-014
   21.1968750000000         3.349824862933783E-014
   21.3099250000000         3.373589159137885E-014
   21.4229750000000         3.393027994727211E-014
   21.5360250000000         3.408087178148512E-014
   21.6490750000000         3.418860486128023E-014
   21.7621250000000         3.425583487256087E-014
   21.8751750000000         3.428628298463979E-014
   21.9882250000000         3.428487121398706E-014
   22.1012750000000         3.425756727494477E-014
   22.2143250000000         3.421109392587524E-014
   22.3273750000000         3.415267200124397E-014
   22.4404250000000         3.408974131638058E-014
   22.5534750000000         3.402965844430770E-014
   22.6665250000000         3.397940118957543E-014
   22.7795750000000         3.394528409562294E-014
   22.8926250000000         3.393278018719255E-014
   23.0056750000000         3.394631857700962E-014
   23.1187250000000         3.398920079466601E-014
   23.2317750000000         3.406353185137509E-014
   23.3448250000000         3.417032841789834E-014
   23.4578750000000         3.430952495534216E-014
   23.5709250000000         3.448015004905282E-014
   23.6839750000000         3.468054226241526E-014
   23.7970250000000         3.490853173481150E-014
   23.9100750000000         3.516171454148960E-014
   24.0231250000000         3.543769309076583E-014
   24.1361750000000         3.573429812639664E-014
   24.2492250000000         3.604974138947418E-014
   24.3622750000000         3.638289035933415E-014
   24.4753250000000         3.673329272128647E-014
   24.5883750000000         3.710134731516897E-014
   24.7014250000000         3.748821108983234E-014
   24.8144750000000         3.789574715626499E-014
   24.9275250000000         3.832640916142809E-014
   25.0405750000000         3.878303909082885E-014
   25.1536250000000         3.926861276937233E-014
   25.2666750000000         3.978597867373086E-014
   25.3797250000000         4.033756330470166E-014
   25.4927750000000         4.092506595813422E-014
   25.6058250000000         4.154930168349756E-014
   25.7188750000000         4.220984855803716E-014
   25.8319250000000         4.290491918428962E-014
   25.9449750000000         4.363124952071386E-014
   26.0580250000000         4.438410174544058E-014
   26.1710750000000         4.515722851310211E-014
   26.2841250000000         4.594300400307829E-014
   26.3971750000000         4.673258693575772E-014
   26.5102250000000         4.751627926950800E-014
   26.6232750000000         4.828370330873615E-014
   26.7363250000000         4.902429341042922E-014
   26.8493750000000         4.972763452428961E-014
   26.9624250000000         5.038386044046460E-014
   27.0754750000000         5.098412529161481E-014
   27.1885250000000         5.152090094236118E-014
   27.3015750000000         5.198837509011366E-014
   27.4146250000000         5.238264517994997E-014
   27.5276750000000         5.270191542050190E-014
   27.6407250000000         5.294661696881912E-014
   27.7537750000000         5.311942932319380E-014
   27.8668250000000         5.322519060653918E-014
   27.9798750000000         5.327074611546425E-014
   28.0929250000000         5.326467906585718E-014
   28.2059750000000         5.321709919292563E-014
   28.3190250000000         5.313923299951337E-014
   28.4320750000000         5.304311985931556E-014
   28.5451250000000         5.294106407131122E-014
   28.6581750000000         5.284538258997631E-014
   28.7712250000000         5.276785722843728E-014
   28.8842750000000         5.271946384528290E-014
   28.9973250000000         5.270997116378485E-014
   29.1103750000000         5.274782774917283E-014
   29.2234250000000         5.283980922113527E-014
   29.3364750000000         5.299098569864773E-014
   29.4495250000000         5.320459058186765E-014
   29.5625750000000         5.348209989296007E-014
   29.6756250000000         5.382325506017707E-014
   29.7886750000000         5.422621137765955E-014
   29.9017250000000         5.468769258764618E-014
   30.0147750000000         5.520314127473857E-014
   30.1278250000000         5.576703652827734E-014
   30.2408750000000         5.637305645827841E-014
   30.3539250000000         5.701433296989561E-014
   30.4669750000000         5.768369525815513E-014
   30.5800250000000         5.837386470902329E-014
   30.6930750000000         5.907766877123417E-014
   30.8061250000000         5.978822390293223E-014
   30.9191750000000         6.049909592318096E-014
   31.0322250000000         6.120434031766696E-014
   31.1452750000000         6.189858729891876E-014
   31.2583250000000         6.257714626257635E-014
   31.3713750000000         6.323599213332264E-014
   31.4844250000000         6.387180663612872E-014
   31.5974750000000         6.448192577812102E-014
   31.7105250000000         6.506439616603417E-014
   31.8235750000000         6.561793418352812E-014
   31.9366250000000         6.614189973108099E-014
   32.0496750000000         6.663626257107843E-014
   32.1627250000000         6.710158234361357E-014
   32.2757750000000         6.753897835429988E-014
   32.3888250000000         6.795009588318442E-014
   32.5018750000000         6.833706409307634E-014
   32.6149250000000         6.870244407143355E-014
   32.7279750000000         6.904921326608844E-014
   32.8410250000000         6.938063660062764E-014
   32.9540750000000         6.970028139132099E-014
   33.0671250000000         7.001189161462304E-014
   33.1801750000000         7.031934278634293E-014
   33.2932250000000         7.062654568840570E-014
   33.4062750000000         7.093730037398882E-014
   33.5193250000000         7.125518702878233E-014
   33.6323750000000         7.158358102139340E-014
   33.7454250000000         7.192544008688720E-014
   33.8584750000000         7.228330596967534E-014
   33.9715250000000         7.265920018979409E-014
   34.0845750000000         7.305464733639346E-014
   34.1976250000000         7.347061925810157E-014
   34.3106750000000         7.390750861573291E-014
   34.4237250000000         7.436521116485205E-014
   34.5367750000000         7.484317528561270E-014
   34.6498250000000         7.534037724543029E-014
   34.7628750000000         7.585546712545401E-014
   34.8759250000000         7.638680724806225E-014
   34.9889750000000         7.693251333747320E-014
   35.1020250000000         7.749062072113869E-014
   35.2150750000000         7.805908646897759E-014
   35.3281250000000         7.863582222665372E-014
   35.4411750000000         7.921878854046516E-014
   35.5542250000000         7.980595311650797E-014
   35.6672750000000         8.039526143601652E-014
   35.7803250000000         8.098466661847041E-014
   35.8933750000000         8.157205068169184E-014
   36.0064250000000         8.215516557010632E-014
   36.1194750000000         8.273157618685636E-014
   36.2325250000000         8.329866902791809E-014
   36.3455750000000         8.385355293798003E-014
   36.4586250000000         8.439306018191275E-014
   36.5716750000000         8.491376301567223E-014
   36.6847250000000         8.541205090196895E-014
   36.7977750000000         8.588419338874781E-014
   36.9108250000000         8.632637489166056E-014
   37.0238750000000         8.673489599247073E-014
   37.1369250000000         8.710633432318407E-014
   37.2499750000000         8.743773455661316E-014
   37.3630250000000         8.772678509808857E-014
   37.4760750000000         8.797203314865692E-014
   37.5891250000000         8.817304638733156E-014
   37.7021750000000         8.833060019443637E-014
   37.8152250000000         8.844674679151659E-014
   37.9282750000000         8.852490132735312E-014
   38.0413250000000         8.856982601990709E-014
   38.1543750000000         8.858756129312185E-014
   38.2674250000000         8.858529122949553E-014
   38.3804750000000         8.857111192270690E-014
   38.4935250000000         8.855378695553072E-014
   38.6065750000000         8.854240737844611E-014
   38.7196250000000         8.854606580189501E-014
   38.8326750000000         8.857344787311760E-014
   38.9457250000000         8.863245225824399E-014
   39.0587750000000         8.872979862351398E-014
   39.1718250000000         8.887071900984143E-014
   39.2848750000000         8.905865809657581E-014
   39.3979250000000         8.929507264036594E-014
   39.5109750000000         8.957930126490497E-014
   39.6240250000000         8.990853264640510E-014
   39.7370750000000         9.027790838125947E-014
   39.8501250000000         9.068068950371755E-014
   39.9631750000000         9.110855026475487E-014
   40.0762250000000         9.155193021317013E-014
   40.1892750000000         9.200047802879210E-014
   40.3023250000000         9.244350775630858E-014
   40.4153750000000         9.287051999781542E-014
   40.5284250000000         9.327171929811166E-014
   40.6414750000000         9.363843949999976E-014
   40.7545250000000         9.396357366994904E-014
   40.8675750000000         9.424194315352270E-014
   40.9806250000000         9.447051064699668E-014
   41.0936750000000         9.464855698197831E-014
   41.2067250000000         9.477767492293402E-014
   41.3197750000000         9.486168794150382E-014
   41.4328250000000         9.490646682840279E-014
   41.5458750000000         9.491958730364268E-014
   41.6589250000000         9.490993373632880E-014
   41.7719750000000         9.488723891766454E-014
   41.8850250000000         9.486159030061994E-014
   41.9980750000000         9.484291617518105E-014
   42.1111250000000         9.484046650322589E-014
   42.2241750000000         9.486243775537248E-014
   42.3372250000000         9.491556279027714E-014
   42.4502750000000         9.500483835620478E-014
   42.5633250000000         9.513336067123583E-014
   42.6763750000000         9.530222997624132E-014
   42.7894250000000         9.551064851238449E-014
   42.9024750000000         9.575612027471184E-014
   43.0155250000000         9.603463464708095E-014
   43.1285750000000         9.634101632379420E-014
   43.2416250000000         9.666940023593844E-014
   43.3546750000000         9.701362403205548E-014
   43.4677250000000         9.736767917911195E-014
   43.5807750000000         9.772610129351638E-014
   43.6938250000000         9.808433948270000E-014
   43.8068750000000         9.843901592916133E-014
   43.9199250000000         9.878813503005769E-014
   44.0329750000000         9.913115109722894E-014
   44.1460250000000         9.946886260261246E-014
   44.2590750000000         9.980327526783982E-014
   44.3721250000000         1.001373068682541E-013
   44.4851750000000         1.004745308540327E-013
   44.5982250000000         1.008185702569415E-013
   44.7112750000000         1.011727373813702E-013
   44.8243250000000         1.015395618623418E-013
   44.9373750000000         1.019203205246425E-013
   45.0504250000000         1.023145996396690E-013
   45.1634750000000         1.027200110521437E-013
   45.2765250000000         1.031319266813247E-013
   45.3895750000000         1.035434758673179E-013
   45.5026250000000         1.039455304690809E-013
   45.6156750000000         1.043269335440928E-013
   45.7287250000000         1.046748467730700E-013
   45.8417750000000         1.049752035424339E-013
   45.9548250000000         1.052132743164689E-013
   46.0678750000000         1.053743562268466E-013
   46.1809250000000         1.054444204486612E-013
   46.2939750000000         1.054108828448945E-013
   46.4070250000000         1.052632379821799E-013
   46.5200750000000         1.049936789034385E-013
   46.6331250000000         1.045976486776157E-013
   46.7461750000000         1.040742074030113E-013
   46.8592250000000         1.034262825161120E-013
   46.9722750000000         1.026607337251890E-013
   47.0853250000000         1.017883059220084E-013
   47.1983750000000         1.008233450719473E-013
   47.3114250000000         9.978338777289462E-014
   47.4244750000000         9.868858140082268E-014
   47.5375250000000         9.756109050777236E-014
   47.6505750000000         9.642427284815719E-014
   47.7636250000000         9.530195958733564E-014
   47.8766750000000         9.421761341332752E-014
   47.9897250000000         9.319356814506523E-014
   48.1027750000000         9.225034266029560E-014
   48.2158250000000         9.140608622996936E-014
   48.3288750000000         9.067601414999863E-014
   48.4419250000000         9.007212868280676E-014
   48.5549750000000         8.960302883623429E-014
   48.6680250000000         8.927384211887307E-014
   48.7810750000000         8.908631629915828E-014
   48.8941250000000         8.903911182881335E-014
   49.0071750000000         8.912804159309553E-014
   49.1202250000000         8.934659985695458E-014
   49.2332750000000         8.968630486175272E-014
   49.3463250000000         9.013735100765335E-014
   49.4593750000000         9.068898448988633E-014
   49.5724250000000         9.132991580267316E-014
   49.6854750000000         9.204886396480307E-014
   49.7985250000000         9.283470528836175E-014
   49.9115750000000         9.367670362209998E-014
   50.0246250000000         9.456470988495937E-014
   50.1376750000000         9.548906146907471E-014
   50.2507250000000         9.644061109615428E-014
   50.3637750000000         9.741046254442117E-014
   50.4768250000000         9.838987778467110E-014
   50.5898750000000         9.936993362854964E-014
   50.7029250000000         1.003413729254982E-013
   50.8159750000000         1.012943170552929E-013
   50.9290250000000         1.022181184008843E-013
   51.0420750000000         1.031012515856496E-013
   51.1551250000000         1.039312940679906E-013
   51.2681750000000         1.046949414190729E-013
   51.3812250000000         1.053781913622130E-013
   51.4942750000000         1.059666289183944E-013
   51.6073250000000         1.064457478075172E-013
   51.7203750000000         1.068012936812090E-013
   51.8334250000000         1.070198197430497E-013
   51.9464750000000         1.070890716919158E-013
   52.0595250000000         1.069985097237002E-013
   52.1725750000000         1.067397317065703E-013
   52.2856250000000         1.063068581327809E-013
   52.3986750000000         1.056968191556849E-013
   52.5117250000000         1.049096053271741E-013
   52.6247750000000         1.039483392316604E-013
   52.7378250000000         1.028193004533306E-013
   52.8508750000000         1.015317464250835E-013
   52.9639250000000         1.000977289522005E-013
   53.0769750000000         9.853175612302090E-014
   53.1900250000000         9.685039876670462E-014
   53.3030750000000         9.507180501219580E-014
   53.4161250000000         9.321522868545051E-014
   53.5291750000000         9.130058496866154E-014
   53.6422250000000         8.934789645909674E-014
   53.7552750000000         8.737693585428674E-014
   53.8683250000000         8.540685520507741E-014
   53.9813750000000         8.345588800752486E-014
   54.0944250000000         8.154119583545037E-014
   54.2074750000000         7.967865655861663E-014
   54.3205250000000         7.788286453404536E-014
   54.4335750000000         7.616719544186659E-014
   54.5466250000000         7.454374733472890E-014
   54.6596750000000         7.302351011204865E-014
   54.7727250000000         7.161647162853293E-014
   54.8857750000000         7.033165968208925E-014
   54.9988250000000         6.917717826050626E-014
   55.1118750000000         6.816021883426555E-014
   55.2249250000000         6.728698402428939E-014
   55.3379750000000         6.656250474308958E-014
   55.4510250000000         6.599042311449768E-014
   55.5640750000000         6.557264139347987E-014
   55.6771250000000         6.530909566300863E-014
   55.7901750000000         6.519734267576239E-014
   55.9032250000000         6.523215600661836E-014
   56.0162750000000         6.540522247437544E-014
   56.1293250000000         6.570490146232867E-014
   56.2423750000000         6.611611857379246E-014
   56.3554250000000         6.662034101845839E-014
   56.4684750000000         6.719574687414548E-014
   56.5815250000000         6.781756523906104E-014
   56.6945750000000         6.845862866988494E-014
   56.8076250000000         6.909011985810630E-014
   56.9206750000000         6.968238831193611E-014
   57.0337250000000         7.020597073177127E-014
   57.1467750000000         7.063274032837986E-014
   57.2598250000000         7.093705680050335E-014
   57.3728750000000         7.109689889185823E-014
   57.4859250000000         7.109488432678401E-014
   57.5989750000000         7.091914275352905E-014
   57.7120250000000         7.056403259592116E-014
   57.8250750000000         7.003045386540027E-014
   57.9381250000000         6.932593471021741E-014
   58.0511750000000         6.846431499805421E-014
   58.1642250000000         6.746503199537180E-014
   58.2772750000000         6.635208474453497E-014
   58.3903250000000         6.515258858584385E-014
   58.5033750000000         6.389511714802638E-014
   58.6164250000000         6.260776347270290E-014
   58.7294750000000         6.131607921194536E-014
   58.8425250000000         6.004109917916283E-014
   58.9555750000000         5.879735912811466E-014
   59.0686250000000         5.759121284579639E-014
   59.1816750000000         5.641953787066195E-014
   59.2947250000000         5.526895496820865E-014
   59.4077750000000         5.411561530969784E-014
   59.5208250000000         5.292567570421675E-014
   59.6338750000000         5.165658893950717E-014
   59.7469250000000         5.025907871202288E-014
   59.8599750000000         4.867994440737111E-014
   59.9730250000000         4.686539294641307E-014
   60.0860750000000         4.476495394546909E-014
   60.1991250000000         4.233583166632935E-014
   60.3121750000000         3.954731124423717E-014
   60.4252250000000         3.638524340096542E-014
   60.5382750000000         3.285601636353390E-014
   60.6513250000000         2.898996259527596E-014
   60.7643750000000         2.484386275168296E-014
   60.8774250000000         2.050226497064860E-014
   60.9904750000000         1.607740315375117E-014
   61.1035250000000         1.170739352782483E-014
   61.2165750000000         7.552816215859507E-015
   61.3296250000000         3.791389072477635E-015
   61.4426750000000         6.109516386949550E-016
   61.5557250000000        -1.799222017166829E-015
   61.6687750000000        -3.258540694409757E-015
   61.7818250000000        -3.606173523044818E-015
   61.8948750000000        -2.712849849682163E-015
   62.0079250000000        -4.925901990389532E-016
   62.1209750000000         3.085974263366825E-015
   62.2340250000000         7.989471438694687E-015
   62.3470750000000         1.411153794971232E-014
   62.4601250000000         2.126709060039805E-014
   62.5731750000000         2.918971609372700E-014
   62.6862250000000         3.753288971604523E-014
   62.7992750000000         4.587529085299146E-014
   62.9123250000000         5.373068712258118E-014
   63.0253750000000         6.056229515342006E-014
   63.1384250000000         6.580183673412156E-014
   63.2514750000000         6.887274191894247E-014
   63.3645250000000         6.921691899703874E-014
   63.4775750000000         6.632453776426356E-014
   63.5906250000000         5.976552627102784E-014
   63.7036750000000         4.922161654567190E-014
   63.8167250000000         3.451754828611362E-014
   63.9297750000000         1.564975775969135E-014
   64.0428250000000        -7.189082402641517E-015
   64.1558750000000        -3.359140064498788E-014
   64.2689250000000        -6.292349354185815E-014
   64.3819750000000        -9.432320746465019E-014
   64.4950250000000        -1.267080105776093E-013
   64.6080750000000        -1.587941050550419E-013
   64.7211250000000        -1.891272917889101E-013
   64.8341750000000        -2.161257897435539E-013
   64.9472250000000        -2.381344159750433E-013
   65.0602750000000        -2.534892382258190E-013
   65.1733250000000        -2.605910816845132E-013
   65.2863750000000        -2.579857817268737E-013
   65.3994250000000        -2.444483887876004E-013
   65.5124750000000        -2.190681475176237E-013