 -0.847875000000000         1.276828952480843E-024
 -0.734825000000000         4.829159472846388E-024
 -0.621775000000000         1.588211734038246E-023
 -0.508725000000000         6.140924118561544E-023
 -0.395675000000000         2.321584584966844E-022
 -0.282625000000000         7.697611550202033E-022
 -0.169575000000000         2.194044082847761E-021
 -5.652500000000005E-002    5.374489325844300E-021
  5.652499999999994E-002    1.126236729181666E-020
  0.169575000000000         2.000586161409291E-020
  0.282625000000000         2.910159009056938E-020
  0.395675000000000         3.087603123798941E-020
  0.508725000000000         9.511454956684041E-021
  0.621775000000000        -6.291254857241451E-020
  0.734825000000000        -2.299207270375879E-019
  0.847875000000000        -5.523886805013757E-019
  0.960925000000000        -1.112502607067709E-018
   1.07397500000000        -2.017541075013560E-018
   1.18702500000000        -3.399281354641814E-018
   1.30007500000000        -5.415673216947790E-018
   1.41312500000000        -8.252124163370480E-018
   1.52617500000000        -1.212144580195789E-017
   1.63922500000000        -1.726131227138096E-017
   1.75227500000000        -2.393504330288574E-017
   1.86532500000000        -3.242580849576474E-017
   1.97837500000000        -4.302985251956712E-017
   2.09142500000000        -5.605667918032536E-017
   2.20447500000000        -7.181901785145011E-017
   2.31752500000000        -9.062670605799834E-017
   2.43057500000000        -1.127796384439482E-016
   2.54362500000000        -1.385592396943519E-016
   2.65667500000000        -1.682155693425291E-016
   2.76972500000000        -2.019669290630434E-016
   2.88277500000000        -2.399895439483160E-016
   2.99582500000000        -2.824079347123603E-016
   3.10887500000000        -3.292894610911334E-016
   3.22192500000000        -3.806420259426060E-016
   3.33497500000000        -4.364101050602758E-016
   3.44802500000000        -4.964805194494341E-016
   3.56107500000000        -5.606863382921702E-016
   3.67412500000000        -6.287889410485588E-016
   3.78717500000000        -7.005022989725690E-016
   3.90022500000000        -7.755118296588390E-016
   4.01327500000000        -8.534711872656949E-016
   4.12632500000000        -9.339957676933151E-016
   4.23937500000000        -1.016701543453754E-015
   4.35242500000000        -1.101219253968608E-015
   4.46547500000000        -1.187196056161298E-015
   4.57852500000000        -1.274320742697388E-015
   4.69157500000000        -1.362327275196637E-015
   4.80462500000000        -1.451015138384270E-015
   4.91767500000000        -1.540260988909948E-015
   5.03072500000000        -1.630017740530425E-015
   5.14377500000000        -1.720331042410616E-015
   5.25682500000000        -1.811334166092609E-015
   5.36987500000000        -1.903248324853501E-015
   5.48292500000000        -1.996388776909624E-015
   5.59597500000000        -2.091147750356810E-015
   5.70902500000000        -2.187991322941662E-015
   5.82207500000000        -2.287426716138030E-015
   5.93512500000000        -2.390013792410630E-015
   6.04817500000000        -2.496343972205960E-015
   6.16122500000000        -2.606986642818626E-015
   6.27427500000000        -2.722482149922560E-015
   6.38732500000000        -2.843338681236790E-015
   6.50037500000000        -2.970024652259931E-015
   6.61342500000000        -3.102891962329911E-015
   6.72647500000000        -3.242189728336156E-015
   6.83952500000000        -3.388064612536869E-015
   6.95257500000000        -3.540532172383190E-015
   7.06562500000000        -3.699472835954521E-015
   7.17867500000000        -3.864608045721539E-015
   7.29172500000000        -4.035524940584871E-015
   7.40477500000000        -4.211689146423233E-015
   7.51782500000000        -4.392447582859065E-015
   7.63087500000000        -4.577035259934856E-015
   7.74392500000000        -4.764604854516531E-015
   7.85697500000000        -4.954244836708033E-015
   7.97002500000000        -5.144995121030605E-015
   8.08307500000000        -5.335889887693214E-015
   8.19612500000000        -5.525992585679795E-015
   8.30917500000000        -5.714415354450464E-015
   8.42222500000000        -5.900325763074884E-015
   8.53527500000000        -6.082996695852445E-015
   8.64832500000000        -6.261823619801595E-015
   8.76137500000000        -6.436321610543835E-015
   8.87442500000000        -6.606160778575473E-015
   8.98747500000000        -6.771155008130017E-015
   9.10052500000000        -6.931267304070979E-015
   9.21357500000000        -7.086605665975028E-015
   9.32662500000000        -7.237409695739381E-015
   9.43967500000000        -7.384028738395659E-015
   9.55272500000000        -7.526894399949492E-015
   9.66577500000000        -7.666503490046584E-015
   9.77882500000000        -7.803385541337055E-015
   9.89187500000000        -7.938073153034134E-015
   10.0049250000000        -8.071066976381442E-015
   10.1179750000000        -8.202808515144346E-015
   10.2310250000000        -8.333661640023411E-015
   10.3440750000000        -8.463870525916266E-015
   10.4571250000000        -8.593552010642731E-015
   10.5701750000000        -8.722695316525661E-015
   10.6832250000000        -8.851136760018837E-015
   10.7962750000000        -8.978570882222461E-015
   10.9093250000000        -9.104563729046470E-015
   11.0223750000000        -9.228559038298419E-015
   11.1354250000000        -9.349902029315890E-015
   11.2484750000000        -9.467883186721897E-015
   11.3615250000000        -9.581756241170527E-015
   11.4745750000000        -9.690766468312139E-015
   11.5876250000000        -9.794200244899929E-015
   11.7006750000000        -9.891418838941323E-015
   11.8137250000000        -9.981897217673127E-015
   11.9267750000000        -1.006524225860174E-014
   12.0398250000000        -1.014122753278113E-014
   12.1528750000000        -1.020981637146145E-014
   12.2659250000000        -1.027115547569727E-014
   12.3789750000000        -1.032559084820876E-014
   12.4920250000000        -1.037366158817051E-014
   12.6050750000000        -1.041608458766188E-014
   12.7181250000000        -1.045372824310032E-014
   12.8311750000000        -1.048758666261899E-014
   12.9442250000000        -1.051876230692347E-014
   13.0572750000000        -1.054840299622307E-014
   13.1703250000000        -1.057765364196870E-014
   13.2833750000000        -1.060763023018125E-014
   13.3964250000000        -1.063937722800312E-014
   13.5094750000000        -1.067382232984293E-014
   13.6225250000000        -1.071173986166001E-014
   13.7355750000000        -1.075373376637969E-014
   13.8486250000000        -1.080020197246014E-014
   13.9616750000000        -1.085133758178578E-014
   14.0747250000000        -1.090711994607698E-014
   14.1877750000000        -1.096730842715600E-014
   14.3008250000000        -1.103147231608629E-014
   14.4138750000000        -1.109900330955440E-014
   14.5269250000000        -1.116916942733586E-014
   14.6399750000000        -1.124112730441311E-014
   14.7530250000000        -1.131395060112116E-014
   14.8660750000000        -1.138670476456748E-014
   14.9791250000000        -1.145846846124235E-014
   15.0921750000000        -1.152837306924657E-014
   15.2052250000000        -1.159565106174741E-014
   15.3182750000000        -1.165966312167406E-014
   15.4313250000000        -1.171991657783028E-014
   15.5443750000000        -1.177608551657750E-014
   15.6574250000000        -1.182803286146016E-014
   15.7704750000000        -1.187579577075464E-014
   15.8835250000000        -1.191958477321460E-014
   15.9965750000000        -1.195977101929578E-014
   16.1096250000000        -1.199685633721545E-014
   16.2226750000000        -1.203145898798332E-014
   16.3357250000000        -1.206427253575586E-014
   16.4487750000000        -1.209603286686921E-014
   16.5618250000000        -1.212747806966045E-014
   16.6748750000000        -1.215932600460834E-014
   16.7879250000000        -1.219224507354982E-014
   16.9009750000000        -1.222681425588943E-014
   17.0140250000000        -1.226350164010672E-014
   17.1270750000000        -1.230265907592217E-014
   17.2401250000000        -1.234453060486037E-014
   17.3531750000000        -1.238920932623807E-014
   17.4662250000000        -1.243667852804703E-014
   17.5792750000000        -1.248682336967276E-014
   17.6923250000000        -1.253942961864499E-014
   17.8053750000000        -1.259424752122288E-014
   17.9184250000000        -1.265098345694100E-014
   18.0314750000000        -1.270933369624870E-014
   18.1445250000000        -1.276904251084858E-014
   18.2575750000000        -1.282991062588230E-014
   18.3706250000000        -1.289182084636886E-014
   18.4836750000000        -1.295477037085877E-014
   18.5967250000000        -1.301888545165514E-014
   18.7097750000000        -1.308443391555809E-014
   18.8228250000000        -1.315182523633211E-014
   18.9358750000000        -1.322161504289742E-014
   19.0489250000000        -1.329449564376510E-014
   19.1619750000000        -1.337127147106964E-014
   19.2750250000000        -1.345283603406735E-014
   19.3880750000000        -1.354015560390434E-014
   19.5011250000000        -1.363423659512355E-014
   19.6141750000000        -1.373608407693927E-014
   19.7272250000000        -1.384667163328340E-014
   19.8402750000000        -1.396689172936494E-014
   19.9533250000000        -1.409752662998829E-014
   20.0663750000000        -1.423924402081632E-014
   20.1794250000000        -1.439254636719331E-014
   20.2924750000000        -1.455774066216836E-014
   20.4055250000000        -1.473493378423425E-014
   20.5185750000000        -1.492401935789175E-014
   20.6316250000000        -1.512468082083533E-014
   20.7446750000000        -1.533638520372407E-014
   20.8577250000000        -1.555839296941729E-014
   20.9707750000000        -1.578977810438554E-014
   21.0838250000000        -1.602944425428236E-014
   21.1968750000000        -1.627615836063080E-014
   21.3099250000000        -1.652856026463713E-014
   21.4229750000000        -1.678520396565062E-014
   21.5360250000000        -1.704461161883474E-014
   21.6490750000000        -1.730527374641984E-014
   21.7621250000000        -1.756569800033927E-014
   21.8751750000000        -1.782443945944290E-014
   21.9882250000000        -1.808013024088263E-014
   22.1012750000000        -1.833150241411956E-014
   22.2143250000000        -1.857741488607462E-014
   22.3273750000000        -1.881687760219576E-014
   22.4404250000000        -1.904905390499448E-014
   22.5534750000000        -1.927327975553381E-014
   22.6665250000000        -1.948906960684928E-014
   22.7795750000000        -1.969612932374686E-014
   22.8926250000000        -1.989432958041780E-014
   23.0056750000000        -2.008371906361389E-014
   23.1187250000000        -2.026451127230571E-014
   23.2317750000000        -2.043706837924731E-014
   23.3448250000000        -2.060190052816184E-014
   23.4578750000000        -2.075963384458580E-014
   23.5709250000000        -2.091100417467785E-014
   23.6839750000000        -2.105683872247343E-014
   23.7970250000000        -2.119803785418632E-014
   23.9100750000000        -2.133555925546079E-014
   24.0231250000000        -2.147039345812968E-014
   24.1361750000000        -2.160353532992357E-014
   24.2492250000000        -2.173599398619089E-014
   24.3622750000000        -2.186877498919721E-014
   24.4753250000000        -2.200286048788750E-014
   24.5883750000000        -2.213920737407721E-014
   24.7014250000000        -2.227872344099623E-014
   24.8144750000000        -2.242226780677525E-014
   24.9275250000000        -2.257064693525694E-014
   25.0405750000000        -2.272460510368774E-014
   25.1536250000000        -2.288481952716508E-014
   25.2666750000000        -2.305189720466951E-014
   25.3797250000000        -2.322636307621655E-014
   25.4927750000000        -2.340866871630866E-014
   25.6058250000000        -2.359918453885501E-014
   25.7188750000000        -2.379818138375346E-014
   25.8319250000000        -2.400583699149399E-014
   25.9449750000000        -2.422223998103169E-014
   26.0580250000000        -2.444736411743731E-014
   26.1710750000000        -2.468106258674512E-014
   26.2841250000000        -2.492307946952950E-014
   26.3971750000000        -2.517304206800954E-014
   26.5102250000000        -2.543044267983147E-014
   26.6232750000000        -2.569464219450457E-014
   26.7363250000000        -2.596488244011004E-014
   26.8493750000000        -2.624026415214792E-014
   26.9624250000000        -2.651976948948786E-014
   27.0754750000000        -2.680226699021766E-014
   27.1885250000000        -2.708651828799276E-014
   27.3015750000000        -2.737120023821878E-014
   27.4146250000000        -2.765490519566431E-014
   27.5276750000000        -2.793617328098496E-014
   27.6407250000000        -2.821352414349322E-014
   27.7537750000000        -2.848547948450848E-014
   27.8668250000000        -2.875058855798103E-014
   27.9798750000000        -2.900744891403667E-014
   28.0929250000000        -2.925476070203806E-014
   28.2059750000000        -2.949134113486904E-014
   28.3190250000000        -2.971615334081388E-014
   28.4320750000000        -2.992833670111121E-014
   28.5451250000000        -3.012722642377648E-014
   28.6581750000000        -3.031237104527492E-014
   28.7712250000000        -3.048354158595535E-014
   28.8842750000000        -3.064074865065684E-014
   28.9973250000000        -3.078424570371266E-014
   29.1103750000000        -3.091451088554986E-014
   29.2234250000000        -3.103223407296476E-014
   29.3364750000000        -3.113830732242855E-014
   29.4495250000000        -3.123380248481887E-014
   29.5625750000000        -3.131995061113342E-014
   29.6756250000000        -3.139809748415153E-014
   29.7886750000000        -3.146967332044340E-014
   29.9017250000000        -3.153615476605998E-014
   30.0147750000000        -3.159904243844861E-014
   30.1278250000000        -3.165982119426977E-014
   30.2408750000000        -3.171991360899016E-014
   30.3539250000000        -3.178066769414512E-014
   30.4669750000000        -3.184333296922296E-014
   30.5800250000000        -3.190903199616473E-014
   30.6930750000000        -3.197875187920601E-014
   30.8061250000000        -3.205333972833467E-014
   30.9191750000000        -3.213349287143652E-014
   31.0322250000000        -3.221975615585732E-014
   31.1452750000000        -3.231254355853698E-014
   31.2583250000000        -3.241214611728580E-014
   31.3713750000000        -3.251874401302470E-014
   31.4844250000000        -3.263241647586873E-014
   31.5974750000000        -3.275317516591412E-014
   31.7105250000000        -3.288098648363823E-014
   31.8235750000000        -3.301577153433743E-014
   31.9366250000000        -3.315743105637927E-014
   32.0496750000000        -3.330586122758241E-014
   32.1627250000000        -3.346096656405171E-014
   32.2757750000000        -3.362266547281000E-014
   32.3888250000000        -3.379089533918465E-014
   32.5018750000000        -3.396561544790979E-014
   32.6149250000000        -3.414681347726809E-014
   32.7279750000000        -3.433447350415390E-014
   32.8410250000000        -3.452858828435987E-014
   32.9540750000000        -3.472915041628360E-014
   33.0671250000000        -3.493612488924725E-014
   33.1801750000000        -3.514947736635740E-014
   33.2932250000000        -3.536913244705126E-014
   33.4062750000000        -3.559495432961916E-014
   33.5193250000000        -3.582677822505199E-014
   33.6323750000000        -3.606438801120382E-014
   33.7454250000000        -3.630750452033084E-014
   33.8584750000000        -3.655580388166500E-014
   33.9715250000000        -3.680891425563397E-014
   34.0845750000000        -3.706642641084361E-014
   34.1976250000000        -3.732789754125481E-014
   34.3106750000000        -3.759285889743450E-014
   34.4237250000000        -3.786084546560056E-014
   34.5367750000000        -3.813138576241111E-014
   34.6498250000000        -3.840401689342373E-014
   34.7628750000000        -3.867830636916691E-014
   34.8759250000000        -3.895384313686070E-014
   34.9889750000000        -3.923025812442717E-014
   35.1020250000000        -3.950722680017628E-014
   35.2150750000000        -3.978445296144120E-014
   35.3281250000000        -4.006168951973253E-014
   35.4411750000000        -4.033873266557114E-014
   35.5542250000000        -4.061539904647075E-014
   35.6672750000000        -4.089153618292649E-014
   35.7803250000000        -4.116701374131507E-014
   35.8933750000000        -4.144169862755384E-014
   36.0064250000000        -4.171546833164419E-014
   36.1194750000000        -4.198820944641639E-014
   36.2325250000000        -4.225979245765630E-014
   36.3455750000000        -4.253007490840009E-014
   36.4586250000000        -4.279892421288597E-014
   36.5716750000000        -4.306622372447066E-014
   36.6847250000000        -4.333186590556437E-014
   36.7977750000000        -4.359576358560324E-014
   36.9108250000000        -4.385786212185489E-014
   37.0238750000000        -4.411817561113491E-014
   37.1369250000000        -4.437680414646520E-014
   37.2499750000000        -4.463393181986272E-014
   37.3630250000000        -4.488985873885638E-014
   37.4760750000000        -4.514501334921942E-014
   37.5891250000000        -4.539995851281177E-014
   37.7021750000000        -4.565541234018770E-014
   37.8152250000000        -4.591222796012379E-014
   37.9282750000000        -4.617138894103005E-014
   38.0413250000000        -4.643402558924235E-014
   38.1543750000000        -4.670138200937818E-014
   38.2674250000000        -4.697477408431673E-014
   38.3804750000000        -4.725557279159045E-014
   38.4935250000000        -4.754516694956906E-014
   38.6065750000000        -4.784491988174480E-014
   38.7196250000000        -4.815612750996083E-014
   38.8326750000000        -4.847996549041833E-014
   38.9457250000000        -4.881744147239978E-014
   39.0587750000000        -4.916936123902831E-014
   39.1718250000000        -4.953627974416786E-014
   39.2848750000000        -4.991846498620855E-014
   39.3979250000000        -5.031588053664554E-014
   39.5109750000000        -5.072815645040305E-014
   39.6240250000000        -5.115458023760127E-014
   39.7370750000000        -5.159410452639787E-014
   39.8501250000000        -5.204535637469640E-014
   39.9631750000000        -5.250665855848287E-014
   40.0762250000000        -5.297606958845244E-014
   40.1892750000000        -5.345142506560729E-014
   40.3023250000000        -5.393038147561541E-014
   40.4153750000000        -5.441048374351788E-014
   40.5284250000000        -5.488922750263440E-014
   40.6414750000000        -5.536411740388902E-014
   40.7545250000000        -5.583273743328252E-014
   40.8675750000000        -5.629281497677477E-014
   40.9806250000000        -5.674228563171090E-014
   41.0936750000000        -5.717933953401174E-014
   41.2067250000000        -5.760246690771649E-014
   41.3197750000000        -5.801051361285607E-014
   41.4328250000000        -5.840268753470624E-014
   41.5458750000000        -5.877857113340730E-014
   41.6589250000000        -5.913813933101299E-014
   41.7719750000000        -5.948174615906888E-014
   41.8850250000000        -5.981010176245585E-014
   41.9980750000000        -6.012423403583591E-014
   42.1111250000000        -6.042547314428743E-014
   42.2241750000000        -6.071540144931962E-014
   42.3372250000000        -6.099578825593548E-014
   42.4502750000000        -6.126854433791781E-014
   42.5633250000000        -6.153566318018522E-014
   42.6763750000000        -6.179917208988031E-014
   42.7894250000000        -6.206109456026977E-014
   42.9024750000000        -6.232337866507636E-014
   43.0155250000000        -6.258784545513154E-014
   43.1285750000000        -6.285617711223427E-014
   43.2416250000000        -6.312988892176960E-014
   43.3546750000000        -6.341029248902097E-014
   43.4677250000000        -6.369848698753882E-014
   43.5807750000000        -6.399536350965006E-014
   43.6938250000000        -6.430158769920590E-014
   43.8068750000000        -6.461762298635936E-014
   43.9199250000000        -6.494375378652358E-014
   44.0329750000000        -6.528006988547955E-014
   44.1460250000000        -6.562648317835446E-014
   44.2590750000000        -6.598278275518702E-014
   44.3721250000000        -6.634867088915076E-014
   44.4851750000000        -6.672371233909106E-014
   44.5982250000000        -6.710737717023922E-014
   44.7112750000000        -6.749911801029390E-014
   44.8243250000000        -6.789832111625932E-014
   44.9373750000000        -6.830431283845302E-014
   45.0504250000000        -6.871639141508911E-014
   45.1634750000000        -6.913382482481250E-014
   45.2765250000000        -6.955585626228998E-014
   45.3895750000000        -6.998170485829974E-014
   45.5026250000000        -7.041055940057449E-014
   45.6156750000000        -7.084156821234517E-014
   45.7287250000000        -7.127384715633898E-014
   45.8417750000000        -7.170647852052316E-014
   45.9548250000000        -7.213852727049219E-014
   46.0678750000000        -7.256903044661318E-014
   46.1809250000000        -7.299700387268087E-014
   46.2939750000000        -7.342146767542166E-014
   46.4070250000000        -7.384143800965846E-014
   46.5200750000000        -7.425596440036839E-014
   46.6331250000000        -7.466414123725913E-014
   46.7461750000000        -7.506512885302291E-014
   46.8592250000000        -7.545817823138045E-014
   46.9722750000000        -7.584264795302184E-014
   47.0853250000000        -7.621802669869456E-014
   47.1983750000000        -7.658396291344260E-014
   47.3114250000000        -7.694027164479899E-014
   47.4244750000000        -7.728696011171027E-014
   47.5375250000000        -7.762423702119787E-014
   47.6505750000000        -7.795250254395201E-014
   47.7636250000000        -7.827237237677689E-014
   47.8766750000000        -7.858466377828150E-014
   47.9897250000000        -7.889038995888461E-014
   48.1027750000000        -7.919075333448169E-014
   48.2158250000000        -7.948710187721929E-014
   48.3288750000000        -7.978092751686543E-014
   48.4419250000000        -8.007383833430682E-014
   48.5549750000000        -8.036751551641492E-014
   48.6680250000000        -8.066368864566158E-014
   48.7810750000000        -8.096410217672662E-014
   48.8941250000000        -8.127048305912709E-014
   49.0071750000000        -8.158449967968391E-014
   49.1202250000000        -8.190771787269260E-014
   49.2332750000000        -8.224159468150300E-014
   49.3463250000000        -8.258744226085390E-014
   49.4593750000000        -8.294636776183094E-014
   49.5724250000000        -8.331930792173196E-014
   49.6854750000000        -8.370698855134752E-014
   49.7985250000000        -8.410988885764851E-014
   49.9115750000000        -8.452827672142470E-014
   50.0246250000000        -8.496218263314466E-014
   50.1376750000000        -8.541142228568893E-014
   50.2507250000000        -8.587559293939996E-014
   50.3637750000000        -8.635408991576314E-014
   50.4768250000000        -8.684614221563159E-014
   50.5898750000000        -8.735082312908439E-014
   50.7029250000000        -8.786708657487858E-014
   50.8159750000000        -8.839380007301058E-014
   50.9290250000000        -8.892977471390513E-014
   51.0420750000000        -8.947378821724484E-014
   51.1551250000000        -9.002463185925208E-014
   51.2681750000000        -9.058115065614390E-014
   51.3812250000000        -9.114226535590122E-014
   51.4942750000000        -9.170699743227995E-014
   51.6073250000000        -9.227449297187631E-014
   51.7203750000000        -9.284404035655724E-014
   51.8334250000000        -9.341508931785865E-014
   51.9464750000000        -9.398725573094478E-014
   52.0595250000000        -9.456032651197840E-014
   52.1725750000000        -9.513423935029670E-014
   52.2856250000000        -9.570907220024094E-014
   52.3986750000000        -9.628503603867711E-014
   52.5117250000000        -9.686243960924659E-014
   52.6247750000000        -9.744167573805635E-014
   52.7378250000000        -9.802317284631750E-014
   52.8508750000000        -9.860735744751800E-014
   52.9639250000000        -9.919464281825779E-014
   53.0769750000000        -9.978537585112662E-014
   53.1900250000000        -1.003798091908756E-013
   53.3030750000000        -1.009780799441569E-013
   53.4161250000000        -1.015801884467505E-013
   53.5291750000000        -1.021859709844930E-013
   53.6422250000000        -1.027951022745330E-013
   53.7552750000000        -1.034071041252624E-013
   53.8683250000000        -1.040213460755939E-013
   53.9813750000000        -1.046370621664490E-013
   54.0944250000000        -1.052533668147830E-013
   54.2074750000000        -1.058692927636941E-013
   54.3205250000000        -1.064838553695538E-013
   54.4335750000000        -1.070960531967720E-013
   54.5466250000000        -1.077049199103621E-013
   54.6596750000000        -1.083096058397690E-013
   54.7727250000000        -1.089093800375867E-013
   54.8857750000000        -1.095036744613809E-013
   54.9988250000000        -1.100921340746325E-013
   55.1118750000000        -1.106746374993827E-013
   55.2249250000000        -1.112513099991911E-013
   55.3379750000000        -1.118225316746588E-013
   55.4510250000000        -1.123889328221507E-013
   55.5640750000000        -1.129513912010739E-013
   55.6771250000000        -1.135110067495328E-013
   55.7901750000000        -1.140690494128215E-013
   55.9032250000000        -1.146269308129924E-013
   56.0162750000000        -1.151861685297415E-013
   56.1293250000000        -1.157483216231855E-013
   56.2423750000000        -1.163149366531081E-013
   56.3554250000000        -1.168874868408030E-013
   56.4684750000000        -1.174673074109929E-013
   56.5815250000000        -1.180555677062454E-013
   56.6945750000000        -1.186532236353158E-013
   56.8076250000000        -1.192609625732687E-013
   56.9206750000000        -1.198791851334900E-013
   57.0337250000000        -1.205079809418937E-013
   57.1467750000000        -1.211471460090833E-013
   57.2598250000000        -1.217961731097335E-013
   57.3728750000000        -1.224542484267477E-013
   57.4859250000000        -1.231203078047289E-013
   57.5989750000000        -1.237930676420728E-013
   57.7120250000000        -1.244710629224403E-013
   57.8250750000000        -1.251526871756442E-013
   57.9381250000000        -1.258362543896513E-013
   58.0511750000000        -1.265200660405434E-013
   58.1642250000000        -1.272024583984960E-013
   58.2772750000000        -1.278818542476097E-013
   58.3903250000000        -1.285568064795756E-013
   58.5033750000000        -1.292260512243905E-013
   58.6164250000000        -1.298885468697149E-013
   58.7294750000000        -1.305434959606154E-013
   58.8425250000000        -1.311903804763756E-013
   58.9555750000000        -1.318289633791957E-013
   59.0686250000000        -1.324592872641968E-013
   59.1816750000000        -1.330816837031745E-013
   59.2947250000000        -1.336967498082502E-013
   59.4077750000000        -1.343053223528604E-013
   59.5208250000000        -1.349084655752966E-013
   59.6338750000000        -1.355074346501871E-013
   59.7469250000000        -1.361036306890479E-013
   59.8599750000000        -1.366985606912610E-013
   59.9730250000000        -1.372937798917822E-013
   60.0860750000000        -1.378908607129480E-013
   60.1991250000000        -1.384913461902743E-013
   60.3121750000000        -1.390966934699186E-013
   60.4252250000000        -1.397082268626671E-013
   60.5382750000000        -1.403270773519256E-013
   60.6513250000000        -1.409541535017592E-013
   60.7643750000000        -1.415901089384785E-013
   60.8774250000000        -1.422352854447223E-013
   60.9904750000000        -1.428896815575295E-013
   61.1035250000000        -1.435529396767306E-013
   61.2165750000000        -1.442243199312540E-013
   61.3296250000000        -1.449026911047068E-013
   61.4426750000000        -1.455865582164151E-013
   61.5557250000000        -1.462740378452031E-013
   61.6687750000000        -1.469629084869196E-013
   61.7818250000000        -1.476506676234964E-013
   61.8948750000000        -1.483345675805816E-013
   62.0079250000000        -1.490117128849369E-013
   62.1209750000000        -1.496791444066811E-013
   62.2340250000000        -1.503339268049069E-013
   62.3470750000000        -1.509732708872793E-013
   62.4601250000000        -1.515946798777873E-013
   62.5731750000000        -1.521960647837031E-013
   62.6862250000000        -1.527758942354733E-013
   62.7992750000000        -1.533333340236497E-013
   62.9123250000000        -1.538683653269808E-013
   63.0253750000000        -1.543819147913022E-013
   63.1384250000000        -1.548759546941012E-013
   63.2514750000000        -1.553535717445220E-013
   63.3645250000000        -1.558190143914559E-013
   63.4775750000000        -1.562777191201632E-013
   63.5906250000000        -1.567362628885492E-013
   63.7036750000000        -1.572022801218118E-013
   63.8167250000000        -1.576843599689441E-013
   63.9297750000000        -1.581918583339991E-013
   64.0428250000000        -1.587346585544178E-013
   64.1558750000000        -1.593229162003184E-013
   64.2689250000000        -1.599667457882967E-013
   64.3819750000000        -1.606758329613307E-013
   64.4950250000000        -1.614590698143069E-013
   64.6080750000000        -1.623241578928920E-013
   64.7211250000000        -1.632771733175935E-013
   64.8341750000000        -1.643221681450280E-013
   64.9472250000000        -1.654607855814340E-013
   65.0602750000000        -1.666919136515347E-013
   65.1733250000000        -1.680113908774398E-013
   65.2863750000000        -1.694117797396565E-013
   65.3994250000000        -1.708822414388529E-013
   65.5124750000000        -1.724085077699006E-013