 -0.847875000000000        -2.584395186784800E-023
 -0.734825000000000        -2.571428513785223E-018
 -0.621775000000000        -1.976038979568839E-017
 -0.508725000000000        -1.020874284033498E-016
 -0.395675000000000        -4.215266942084929E-016
 -0.282625000000000        -1.467003493775188E-015
 -0.169575000000000        -4.407972552195142E-015
 -5.652500000000005E-002   -1.164302874694910E-014
  5.652499999999994E-002   -2.755401101590072E-014
  0.169575000000000        -5.899094727414414E-014
  0.282625000000000        -1.165319151537238E-013
  0.395675000000000        -2.144177390011212E-013
  0.508725000000000        -3.711332809651642E-013
  0.621775000000000        -6.098279162145707E-013
  0.734825000000000        -9.574524723249467E-013
  0.847875000000000        -1.447513294153978E-012
  0.960925000000000        -2.108392555846720E-012
   1.07397500000000        -2.977644450922518E-012
   1.18702500000000        -4.091218503463777E-012
   1.30007500000000        -5.484413384042248E-012
   1.41312500000000        -7.191017073363097E-012
   1.52617500000000        -9.240883114996089E-012
   1.63922500000000        -1.165438686355621E-011
   1.75227500000000        -1.445600666850676E-011
   1.86532500000000        -1.765186607053155E-011
   1.97837500000000        -2.125540255340286E-011
   2.09142500000000        -2.525264857540568E-011
   2.20447500000000        -2.963806200843750E-011
   2.31752500000000        -3.437259533669019E-011
   2.43057500000000        -3.944036168310560E-011
   2.54362500000000        -4.477340222380730E-011
   2.65667500000000        -5.034159423525433E-011
   2.76972500000000        -5.606903924406384E-011
   2.88277500000000        -6.190182133085390E-011
   2.99582500000000        -6.774166907783408E-011
   3.10887500000000        -7.355500931307919E-011
   3.22192500000000        -7.922280794192480E-011
   3.33497500000000        -8.470324209366976E-011
   3.44802500000000        -8.990479984919425E-011
   3.56107500000000        -9.476154109650133E-011
   3.67412500000000        -9.921317913975861E-011
   3.78717500000000        -1.032188529397236E-010
   3.90022500000000        -1.067235707662267E-010
   4.01327500000000        -1.097099353282208E-010
   4.12632500000000        -1.121453256344419E-010
   4.23937500000000        -1.140260959834945E-010
   4.35242500000000        -1.153789695396314E-010
   4.46547500000000        -1.161957491272719E-010
   4.57852500000000        -1.165017218539232E-010
   4.69157500000000        -1.163401817405454E-010
   4.80462500000000        -1.157391247224629E-010
   4.91767500000000        -1.147435510314934E-010
   5.03072500000000        -1.134012527398753E-010
   5.14377500000000        -1.117771065837162E-010
   5.25682500000000        -1.098889729597127E-010
   5.36987500000000        -1.077642517942060E-010
   5.48292500000000        -1.054872746953690E-010
   5.59597500000000        -1.030568060284382E-010
   5.70902500000000        -1.005277864093301E-010
   5.82207500000000        -9.789125462199980E-011
   5.93512500000000        -9.516780552214437E-011
   6.04817500000000        -9.238319616649462E-011
   6.16122500000000        -8.956003555417467E-011
   6.27427500000000        -8.667965695028689E-011
   6.38732500000000        -8.379121212708405E-011
   6.50037500000000        -8.088752016144581E-011
   6.61342500000000        -7.800912885122427E-011
   6.72647500000000        -7.516216712222415E-011
   6.83952500000000        -7.242881516739450E-011
   6.95257500000000        -6.977314284098861E-011
   7.06562500000000        -6.731947472800959E-011
   7.17867500000000        -6.511399609574782E-011
   7.29172500000000        -6.320432933085920E-011
   7.40477500000000        -6.167818326388161E-011
   7.51782500000000        -6.060045086731401E-011
   7.63087500000000        -6.004190066123619E-011
   7.74392500000000        -6.005851091595609E-011
   7.85697500000000        -6.073544675346868E-011
   7.97002500000000        -6.212457802734805E-011
   8.08307500000000        -6.423460284692655E-011
   8.19612500000000        -6.708613846359077E-011
   8.30917500000000        -7.067718428074126E-011
   8.42222500000000        -7.498019310076837E-011
   8.53527500000000        -7.995308886949461E-011
   8.64832500000000        -8.551565586258346E-011
   8.76137500000000        -9.155139036884632E-011
   8.87442500000000        -9.796077689022891E-011
   8.98747500000000        -1.046188739418436E-010
   9.10052500000000        -1.113503535952500E-010
   9.21357500000000        -1.180219918241574E-010
   9.32662500000000        -1.244708205241311E-010
   9.43967500000000        -1.305416955578964E-010
   9.55272500000000        -1.360868100121974E-010
   9.66577500000000        -1.409571583197366E-010
   9.77882500000000        -1.450520463216938E-010
   9.89187500000000        -1.483011466348143E-010
   10.0049250000000        -1.505875010522908E-010
   10.1179750000000        -1.519041354632508E-010
   10.2310250000000        -1.522530429804453E-010
   10.3440750000000        -1.516433272962181E-010
   10.4571250000000        -1.501463236002475E-010
   10.5701750000000        -1.478348753140576E-010
   10.6832250000000        -1.447996912980168E-010
   10.7962750000000        -1.411724124135343E-010
   10.9093250000000        -1.370948744485418E-010
   11.0223750000000        -1.327058971864185E-010
   11.1354250000000        -1.281437008897336E-010
   11.2484750000000        -1.235435575442920E-010
   11.3615250000000        -1.190397518934041E-010
   11.4745750000000        -1.147529354917511E-010
   11.5876250000000        -1.107639335911507E-010
   11.7006750000000        -1.071603372090654E-010
   11.8137250000000        -1.039864591955124E-010
   11.9267750000000        -1.012628726637630E-010
   12.0398250000000        -9.900702483225174E-011
   12.1528750000000        -9.718596360734655E-011
   12.2659250000000        -9.577766828256817E-011
   12.3789750000000        -9.474420049020760E-011
   12.4920250000000        -9.402236912714306E-011
   12.6050750000000        -9.355966400450296E-011
   12.7181250000000        -9.328899366855807E-011
   12.8311750000000        -9.318934505794597E-011
   12.9442250000000        -9.317876302222342E-011
   13.0572750000000        -9.326520188727073E-011
   13.1703250000000        -9.342590861167037E-011
   13.2833750000000        -9.366549982888554E-011
   13.3964250000000        -9.400753839666775E-011
   13.5094750000000        -9.449906337094566E-011
   13.6225250000000        -9.518594184555958E-011
   13.7355750000000        -9.612092345253578E-011
   13.8486250000000        -9.738185715296050E-011
   13.9616750000000        -9.899831231218268E-011
   14.0747250000000        -1.010924747997690E-010
   14.1877750000000        -1.036642682525845E-010
   14.3008250000000        -1.067868898149858E-010
   14.4138750000000        -1.104548171019515E-010
   14.5269250000000        -1.146478921169114E-010
   14.6399750000000        -1.193690920451553E-010
   14.7530250000000        -1.245550444873423E-010
   14.8660750000000        -1.301259174744700E-010
   14.9791250000000        -1.359773199668404E-010
   15.0921750000000        -1.420087062715063E-010
   15.2052250000000        -1.480623045779111E-010
   15.3182750000000        -1.539944651168942E-010
   15.4313250000000        -1.596842475576981E-010
   15.5443750000000        -1.649948486949501E-010
   15.6574250000000        -1.697569825525505E-010
   15.7704750000000        -1.739107259942048E-010
   15.8835250000000        -1.773242532487434E-010
   15.9965750000000        -1.799411256135225E-010
   16.1096250000000        -1.817446121064451E-010
   16.2226750000000        -1.827358401131612E-010
   16.3357250000000        -1.829409948601967E-010
   16.4487750000000        -1.824331669759340E-010
   16.5618250000000        -1.813065621200155E-010
   16.6748750000000        -1.797036658411226E-010
   16.7879250000000        -1.777502984832131E-010
   16.9009750000000        -1.755983190667789E-010
   17.0140250000000        -1.734447660074168E-010
   17.1270750000000        -1.714248341424255E-010
   17.2401250000000        -1.696969853871411E-010
   17.3531750000000        -1.684503304181644E-010
   17.4662250000000        -1.677465239826125E-010
   17.5792750000000        -1.676934064508985E-010
   17.6923250000000        -1.683605016531035E-010
   17.8053750000000        -1.697584896394353E-010
   17.9184250000000        -1.718828866564793E-010
   18.0314750000000        -1.746932640239206E-010
   18.1445250000000        -1.780753221406793E-010
   18.2575750000000        -1.819226193123219E-010
   18.3706250000000        -1.861146937483766E-010
   18.4836750000000        -1.904879919093537E-010
   18.5967250000000        -1.948648509106387E-010
   18.7097750000000        -1.990624243252365E-010
   18.8228250000000        -2.029360349555748E-010
   18.9358750000000        -2.062937980130765E-010
   19.0489250000000        -2.090255889087880E-010
   19.1619750000000        -2.109767897141595E-010
   19.2750250000000        -2.121098515204822E-010
   19.3880750000000        -2.123429221749816E-010
   19.5011250000000        -2.116667091715977E-010
   19.6141750000000        -2.100970807458626E-010
   19.7272250000000        -2.077050720107184E-010
   19.8402750000000        -2.045765685170431E-010
   19.9533250000000        -2.008478664671161E-010
   20.0663750000000        -1.966487411338807E-010
   20.1794250000000        -1.921768895029159E-010
   20.2924750000000        -1.875844316114180E-010
   20.4055250000000        -1.831081680252923E-010
   20.5185750000000        -1.788964590398535E-010
   20.6316250000000        -1.751661832615069E-010
   20.7446750000000        -1.720905441646659E-010
   20.8577250000000        -1.697894765133135E-010
   20.9707750000000        -1.684317532361705E-010
   21.0838250000000        -1.681130466797953E-010
   21.1968750000000        -1.688943907460802E-010
   21.3099250000000        -1.708320073632971E-010
   21.4229750000000        -1.739353370787118E-010
   21.5360250000000        -1.781683620410611E-010
   21.6490750000000        -1.834955501409018E-010
   21.7621250000000        -1.898295576822742E-010
   21.8751750000000        -1.970950919391163E-010
   21.9882250000000        -2.051378280430352E-010
   22.1012750000000        -2.138593353026287E-010
   22.2143250000000        -2.231063910004055E-010
   22.3273750000000        -2.327221801243590E-010
   22.4404250000000        -2.425615475144837E-010
   22.5534750000000        -2.524817269952328E-010
   22.6665250000000        -2.623544648314957E-010
   22.7795750000000        -2.720419472279770E-010
   22.8926250000000        -2.814371098278893E-010
   23.0056750000000        -2.904408587637157E-010
   23.1187250000000        -2.989714247992980E-010
   23.2317750000000        -3.069430188723603E-010
   23.3448250000000        -3.143363728464378E-010
   23.4578750000000        -3.211007008505262E-010
   23.5709250000000        -3.272169293036318E-010
   23.6839750000000        -3.326763323510757E-010
   23.7970250000000        -3.374849089009180E-010
   23.9100750000000        -3.416448899529592E-010
   24.0231250000000        -3.451801623824931E-010
   24.1361750000000        -3.481455279701405E-010
   24.2492250000000        -3.505164122712257E-010
   24.3622750000000        -3.523622398752499E-010
   24.4753250000000        -3.536664204668791E-010
   24.5883750000000        -3.544887670605313E-010
   24.7014250000000        -3.548547125895895E-010
   24.8144750000000        -3.547635790966079E-010
   24.9275250000000        -3.542434787569513E-010
   25.0405750000000        -3.533191863036604E-010
   25.1536250000000        -3.519977082257168E-010
   25.2666750000000        -3.503010378649171E-010
   25.3797250000000        -3.482547708706556E-010
   25.4927750000000        -3.458479527343760E-010
   25.6058250000000        -3.431513610624929E-010
   25.7188750000000        -3.401837097324625E-010
   25.8319250000000        -3.369749313967526E-010
   25.9449750000000        -3.335656877647024E-010
   26.0580250000000        -3.300379795868546E-010
   26.1710750000000        -3.264567427495234E-010
   26.2841250000000        -3.229107009366289E-010
   26.3971750000000        -3.194535245280618E-010
   26.5102250000000        -3.162366947842008E-010
   26.6232750000000        -3.133208377767751E-010
   26.7363250000000        -3.108412677703966E-010
   26.8493750000000        -3.089180666792351E-010
   26.9624250000000        -3.076340042605076E-010
   27.0754750000000        -3.071343994278339E-010
   27.1885250000000        -3.074745174992193E-010
   27.3015750000000        -3.087938525220038E-010
   27.4146250000000        -3.111368738457556E-010
   27.5276750000000        -3.145564957286577E-010
   27.6407250000000        -3.190912713352051E-010
   27.7537750000000        -3.247486154079347E-010
   27.8668250000000        -3.315184805834592E-010
   27.9798750000000        -3.393609056808692E-010
   28.0929250000000        -3.481947255613157E-010
   28.2059750000000        -3.579312637304120E-010
   28.3190250000000        -3.684221196390354E-010
   28.4320750000000        -3.795870531502929E-010
   28.5451250000000        -3.911977866668568E-010
   28.6581750000000        -4.031422787856613E-010
   28.7712250000000        -4.151955947942045E-010
   28.8842750000000        -4.272073446533078E-010
   28.9973250000000        -4.389251455918371E-010
   29.1103750000000        -4.502281811932671E-010
   29.2234250000000        -4.609207362984132E-010
   29.3364750000000        -4.708715566053643E-010
   29.4495250000000        -4.799234534077160E-010
   29.5625750000000        -4.879839933380658E-010
   29.6756250000000        -4.949580207493910E-010
   29.7886750000000        -5.007947161774683E-010
   29.9017250000000        -5.054818367447223E-010
   30.0147750000000        -5.089988847035557E-010
   30.1278250000000        -5.113716723253495E-010
   30.2408750000000        -5.126745720948630E-010
   30.3539250000000        -5.129651854574025E-010
   30.4669750000000        -5.123516398667933E-010
   30.5800250000000        -5.109263326097216E-010
   30.6930750000000        -5.087862764583570E-010
   30.8061250000000        -5.060489928812396E-010
   30.9191750000000        -5.028542444728654E-010
   31.0322250000000        -4.993011089333698E-010
   31.1452750000000        -4.954897750151376E-010
   31.2583250000000        -4.915091818578455E-010
   31.3713750000000        -4.874468087623139E-010
   31.4844250000000        -4.833732094798140E-010
   31.5974750000000        -4.793200907575729E-010
   31.7105250000000        -4.753494164858018E-010
   31.8235750000000        -4.714677716947285E-010
   31.9366250000000        -4.677052937217069E-010
   32.0496750000000        -4.640611291075297E-010
   32.1627250000000        -4.605436498601199E-010
   32.2757750000000        -4.571415354725403E-010
   32.3888250000000        -4.538558291940329E-010
   32.5018750000000        -4.507001322528395E-010
   32.6149250000000        -4.476749898630592E-010
   32.7279750000000        -4.448058472616513E-010
   32.8410250000000        -4.421092414625532E-010
   32.9540750000000        -4.396296646308501E-010
   33.0671250000000        -4.373947579166568E-010
   33.1801750000000        -4.354668697075163E-010
   33.2932250000000        -4.339236697275513E-010
   33.4062750000000        -4.328234680126253E-010
   33.5193250000000        -4.322071264261230E-010
   33.6323750000000        -4.321737351506028E-010
   33.7454250000000        -4.327682755547860E-010
   33.8584750000000        -4.340649016648551E-010
   33.9715250000000        -4.360825757636079E-010
   34.0845750000000        -4.388744238545083E-010
   34.1976250000000        -4.424646532197648E-010
   34.3106750000000        -4.468421747058433E-010
   34.4237250000000        -4.519724943131125E-010
   34.5367750000000        -4.578674639436995E-010
   34.6498250000000        -4.644402737662420E-010
   34.7628750000000        -4.716337744414203E-010
   34.8759250000000        -4.793887343824325E-010
   34.9889750000000        -4.875804127489607E-010
   35.1020250000000        -4.961287401379657E-010
   35.2150750000000        -5.049275626350601E-010
   35.3281250000000        -5.138615742093825E-010
   35.4411750000000        -5.228481277136952E-010
   35.5542250000000        -5.317909158506351E-010
   35.6672750000000        -5.405827412108814E-010
   35.7803250000000        -5.491663874909877E-010
   35.8933750000000        -5.574852161274133E-010
   36.0064250000000        -5.655056043832093E-010
   36.1194750000000        -5.731857081513954E-010
   36.2325250000000        -5.805368116845867E-010
   36.3455750000000        -5.875598653013455E-010
   36.4586250000000        -5.942877129027121E-010
   36.5716750000000        -6.007478301566750E-010
   36.6847250000000        -6.069790896259147E-010
   36.7977750000000        -6.130677032699002E-010
   36.9108250000000        -6.190416925785639E-010
   37.0238750000000        -6.249739072749517E-010
   37.1369250000000        -6.308959416931265E-010
   37.2499750000000        -6.368755254140907E-010
   37.3630250000000        -6.429265644259123E-010
   37.4760750000000        -6.490866282604752E-010
   37.5891250000000        -6.553402215350893E-010
   37.7021750000000        -6.617103062749263E-010
   37.8152250000000        -6.681392311433854E-010
   37.9282750000000        -6.745957951179630E-010
   38.0413250000000        -6.810340294481777E-010
   38.1543750000000        -6.873739892995262E-010
   38.2674250000000        -6.935473329435128E-010
   38.3804750000000        -6.994662777784883E-010
   38.4935250000000        -7.050646627122843E-010
   38.6065750000000        -7.102346872026336E-010
   38.7196250000000        -7.149262327509920E-010
   38.8326750000000        -7.190594053109578E-010
   38.9457250000000        -7.225930724081108E-010
   39.0587750000000        -7.254926896031884E-010
   39.1718250000000        -7.277451105537821E-010
   39.2848750000000        -7.293517782209566E-010
   39.3979250000000        -7.303528250340833E-010
   39.5109750000000        -7.308068791354209E-010
   39.6240250000000        -7.307760524523557E-010
   39.7370750000000        -7.303651995186845E-010
   39.8501250000000        -7.296774398609890E-010
   39.9631750000000        -7.288433085005435E-010
   40.0762250000000        -7.279899474592580E-010
   40.1892750000000        -7.272658408490703E-010
   40.3023250000000        -7.267956854691494E-010
   40.4153750000000        -7.266961733534456E-010
   40.5284250000000        -7.271140979308703E-010
   40.6414750000000        -7.281483742012041E-010
   40.7545250000000        -7.298749244773671E-010
   40.8675750000000        -7.323604165316767E-010
   40.9806250000000        -7.356460776615585E-010
   41.0936750000000        -7.397423194382188E-010
   41.2067250000000        -7.446313339592206E-010
   41.3197750000000        -7.502713209052440E-010
   41.4328250000000        -7.565939819319903E-010
   41.5458750000000        -7.635291928086791E-010
   41.6589250000000        -7.709693429538745E-010
   41.7719750000000        -7.787991919067091E-010
   41.8850250000000        -7.868995596543828E-010
   41.9980750000000        -7.951616920819999E-010
   42.1111250000000        -8.034300741026505E-010
   42.2241750000000        -8.116174398879955E-010
   42.3372250000000        -8.196176460803534E-010
   42.4502750000000        -8.273407288098172E-010
   42.5633250000000        -8.347371089285495E-010
   42.6763750000000        -8.417247767071749E-010
   42.7894250000000        -8.483019551712007E-010
   42.9024750000000        -8.544627462703664E-010
   43.0155250000000        -8.602463333301462E-010
   43.1285750000000        -8.656436225867658E-010
   43.2416250000000        -8.707214515685357E-010
   43.3546750000000        -8.755225456524290E-010
   43.4677250000000        -8.801263142876174E-010
   43.5807750000000        -8.845872148786114E-010
   43.6938250000000        -8.889504342753325E-010
   43.8068750000000        -8.932593559395088E-010
   43.9199250000000        -8.975400049492908E-010
   44.0329750000000        -9.018248917306174E-010
   44.1460250000000        -9.060938054452424E-010
   44.2590750000000        -9.103366678587201E-010
   44.3721250000000        -9.144555126559614E-010
   44.4851750000000        -9.184566343595594E-010
   44.5982250000000        -9.222081510563317E-010
   44.7112750000000        -9.256220356049870E-010
   44.8243250000000        -9.285811474957102E-010
   44.9373750000000        -9.310046998656339E-010
   45.0504250000000        -9.327628924010533E-010
   45.1634750000000        -9.337920179123118E-010
   45.2765250000000        -9.339638300915346E-010
   45.3895750000000        -9.332616875231888E-010
   45.5026250000000        -9.316357215568344E-010
   45.6156750000000        -9.290712362048638E-010
   45.7287250000000        -9.256054364233630E-010
   45.8417750000000        -9.213000513790418E-010
   45.9548250000000        -9.162332549005728E-010
   46.0678750000000        -9.105539645361231E-010
   46.1809250000000        -9.044047029812854E-010
   46.2939750000000        -8.979568329810339E-010
   46.4070250000000        -8.914053222603025E-010
   46.5200750000000        -8.849710198469448E-010
   46.6331250000000        -8.788500556959126E-010
   46.7461750000000        -8.732522741514875E-010
   46.8592250000000        -8.683878944817433E-010
   46.9722750000000        -8.644196120917514E-010
   47.0853250000000        -8.615041879191909E-010
   47.1983750000000        -8.597732303287935E-010
   47.3114250000000        -8.593248731490995E-010
   47.4244750000000        -8.601859355353756E-010
   47.5375250000000        -8.624084825498823E-010
   47.6505750000000        -8.659437288973086E-010
   47.7636250000000        -8.707508583706177E-010
   47.8766750000000        -8.767429381161313E-010
   47.9897250000000        -8.837988166940497E-010
   48.1027750000000        -8.917722913818655E-010
   48.2158250000000        -9.005359434797135E-010
   48.3288750000000        -9.099086011870287E-010
   48.4419250000000        -9.197308650372800E-010
   48.5549750000000        -9.298534124545819E-010
   48.6680250000000        -9.401403307801315E-010
   48.7810750000000        -9.504369094071842E-010
   48.8941250000000        -9.606840430883465E-010
   49.0071750000000        -9.707501327823696E-010
   49.1202250000000        -9.806348966569445E-010
   49.2332750000000        -9.902553926976525E-010
   49.3463250000000        -9.996530437524259E-010
   49.4593750000000        -1.008848346687295E-009
   49.5724250000000        -1.017843891673744E-009
   49.6854750000000        -1.026733954550828E-009
   49.7985250000000        -1.035577725512240E-009
   49.9115750000000        -1.044429664515471E-009
   50.0246250000000        -1.053379079513836E-009
   50.1376750000000        -1.062470020093395E-009
   50.2507250000000        -1.071779613991640E-009
   50.3637750000000        -1.081312210250983E-009
   50.4768250000000        -1.091117857804583E-009
   50.5898750000000        -1.101160423461013E-009
   50.7029250000000        -1.111438029404467E-009
   50.8159750000000        -1.121897921489613E-009
   50.9290250000000        -1.132464280704692E-009
   51.0420750000000        -1.143042883169747E-009
   51.1551250000000        -1.153563631933433E-009
   51.2681750000000        -1.163908931412317E-009
   51.3812250000000        -1.173952718952638E-009
   51.4942750000000        -1.183592326778993E-009
   51.6073250000000        -1.192741375861771E-009
   51.7203750000000        -1.201280932483081E-009
   51.8334250000000        -1.209158629133497E-009
   51.9464750000000        -1.216302289965407E-009
   52.0595250000000        -1.222684956853014E-009
   52.1725750000000        -1.228298262456195E-009
   52.2856250000000        -1.233174823663959E-009
   52.3986750000000        -1.237332084807969E-009
   52.5117250000000        -1.240859492559803E-009
   52.6247750000000        -1.243836006040093E-009
   52.7378250000000        -1.246377547929473E-009
   52.8508750000000        -1.248595326723132E-009
   52.9639250000000        -1.250624749705622E-009
   53.0769750000000        -1.252581874918485E-009
   53.1900250000000        -1.254618823875666E-009
   53.3030750000000        -1.256860880071490E-009
   53.4161250000000        -1.259383028368929E-009
   53.5291750000000        -1.262332636418193E-009
   53.6422250000000        -1.265745260690138E-009
   53.7552750000000        -1.269696497866158E-009
   53.8683250000000        -1.274210839562539E-009
   53.9813750000000        -1.279273291525739E-009
   54.0944250000000        -1.284906797341607E-009
   54.2074750000000        -1.291044282993201E-009
   54.3205250000000        -1.297629297617630E-009
   54.4335750000000        -1.304608327513738E-009
   54.5466250000000        -1.311876055615729E-009
   54.6596750000000        -1.319328314194781E-009
   54.7727250000000        -1.326885046804682E-009
   54.8857750000000        -1.334452538524428E-009
   54.9988250000000        -1.341918298282428E-009
   55.1118750000000        -1.349201270277339E-009
   55.2249250000000        -1.356242824732969E-009
   55.3379750000000        -1.362977252199193E-009
   55.4510250000000        -1.369391226143616E-009
   55.5640750000000        -1.375417332372760E-009
   55.6771250000000        -1.381070830012195E-009
   55.7901750000000        -1.386380581762116E-009
   55.9032250000000        -1.391371280283199E-009
   56.0162750000000        -1.396085023163135E-009
   56.1293250000000        -1.400564870558710E-009
   56.2423750000000        -1.404878655056448E-009
   56.3554250000000        -1.409088174140374E-009
   56.4684750000000        -1.413262458264339E-009
   56.5815250000000        -1.417445608778059E-009
   56.6945750000000        -1.421676966127555E-009
   56.8076250000000        -1.426022623788524E-009
   56.9206750000000        -1.430507469352516E-009
   57.0337250000000        -1.435116378002983E-009
   57.1467750000000        -1.439853192526733E-009
   57.2598250000000        -1.444683099048309E-009
   57.3728750000000        -1.449570103587310E-009
   57.4859250000000        -1.454475371184051E-009
   57.5989750000000        -1.459298526411580E-009
   57.7120250000000        -1.463994403481087E-009
   57.8250750000000        -1.468453124221941E-009
   57.9381250000000        -1.472589699327392E-009
   58.0511750000000        -1.476335650373093E-009
   58.1642250000000        -1.479592469162460E-009
   58.2772750000000        -1.482305418903712E-009
   58.3903250000000        -1.484393619144778E-009
   58.5033750000000        -1.485828977137068E-009
   58.6164250000000        -1.486604823981213E-009
   58.7294750000000        -1.486681351879537E-009
   58.8425250000000        -1.486105037526370E-009
   58.9555750000000        -1.484912332701841E-009
   59.0686250000000        -1.483153899731496E-009
   59.1816750000000        -1.480907796498474E-009
   59.2947250000000        -1.478269700483055E-009
   59.4077750000000        -1.475363294689802E-009
   59.5208250000000        -1.472290487412606E-009
   59.6338750000000        -1.469189526092799E-009
   59.7469250000000        -1.466150804859758E-009
   59.8599750000000        -1.463343739377370E-009
   59.9730250000000        -1.460877346262522E-009
   60.0860750000000        -1.458852230994784E-009
   60.1991250000000        -1.457387381470220E-009
   60.3121750000000        -1.456516806823817E-009
   60.4252250000000        -1.456342455894389E-009
   60.5382750000000        -1.456900863227486E-009
   60.6513250000000        -1.458219404664694E-009
   60.7643750000000        -1.460306993226352E-009
   60.8774250000000        -1.463145287732356E-009
   60.9904750000000        -1.466741421754679E-009
   61.1035250000000        -1.471026025422115E-009
   61.2165750000000        -1.475974660296492E-009
   61.3296250000000        -1.481529856308727E-009
   61.4426750000000        -1.487621073415451E-009
   61.5557250000000        -1.494220965512688E-009
   61.6687750000000        -1.501238121342037E-009
   61.7818250000000        -1.508669397077706E-009
   61.8948750000000        -1.516420578055729E-009
   62.0079250000000        -1.524479946783700E-009
   62.1209750000000        -1.532826881309110E-009
   62.2340250000000        -1.541428822203164E-009
   62.3470750000000        -1.550287836860304E-009
   62.4601250000000        -1.559416695897680E-009
   62.5731750000000        -1.568809661200365E-009
   62.6862250000000        -1.578500289216154E-009
   62.7992750000000        -1.588480409402253E-009
   62.9123250000000        -1.598807733983779E-009
   63.0253750000000        -1.609482428852605E-009
   63.1384250000000        -1.620496502547234E-009
   63.2514750000000        -1.631921112923519E-009
   63.3645250000000        -1.643703294717157E-009
   63.4775750000000        -1.655876668449979E-009
   63.5906250000000        -1.668412914056996E-009
   63.7036750000000        -1.681270675895340E-009
   63.8167250000000        -1.694432076379931E-009
   63.9297750000000        -1.707827097352253E-009
   64.0428250000000        -1.721405029091660E-009
   64.1558750000000        -1.735112840256003E-009
   64.2689250000000        -1.748825416160261E-009
   64.3819750000000        -1.762512377813108E-009
   64.4950250000000        -1.776053894371771E-009
   64.6080750000000        -1.789350207363688E-009
   64.7211250000000        -1.802324805993974E-009
   64.8341750000000        -1.814885912463848E-009
   64.9472250000000        -1.826955194658913E-009
   65.0602750000000        -1.838453629773189E-009
   65.1733250000000        -1.849307614683698E-009
   65.2863750000000        -1.859462387402295E-009
   65.3994250000000        -1.868889026218336E-009
   65.5124750000000        -1.877541787087158E-009