 -0.847875000000000         5.179842712023602E-017
 -0.734825000000000         3.278726730529308E-013
 -0.621775000000000         2.162237778751041E-012
 -0.508725000000000         9.798171462606600E-012
 -0.395675000000000         3.577547959332275E-011
 -0.282625000000000         1.085415063073800E-010
 -0.169575000000000         2.754623904397467E-010
 -5.652500000000005E-002    5.839138667644461E-010
  5.652499999999994E-002    1.021390115382100E-009
  0.169575000000000         1.407664270057256E-009
  0.282625000000000         1.278824244404535E-009
  0.395675000000000        -2.292748808249856E-010
  0.508725000000000        -4.423229955961832E-009
  0.621775000000000        -1.303903246049236E-008
  0.734825000000000        -2.824445240986888E-008
  0.847875000000000        -5.260689974440730E-008
  0.960925000000000        -8.899828683280422E-008
   1.07397500000000        -1.405947073240094E-007
   1.18702500000000        -2.108263599450804E-007
   1.30007500000000        -3.032044949278574E-007
   1.41312500000000        -4.213516126998086E-007
   1.52617500000000        -5.688109753180591E-007
   1.63922500000000        -7.490058422310432E-007
   1.75227500000000        -9.649678631672628E-007
   1.86532500000000        -1.219556953935627E-006
   1.97837500000000        -1.514810973509836E-006
   2.09142500000000        -1.852358178739133E-006
   2.20447500000000        -2.231648373649803E-006
   2.31752500000000        -2.655408908562974E-006
   2.43057500000000        -3.121796414000023E-006
   2.54362500000000        -3.625557038045822E-006
   2.65667500000000        -4.168976466514693E-006
   2.76972500000000        -4.743561614490356E-006
   2.88277500000000        -5.348918505682490E-006
   2.99582500000000        -5.973731244830976E-006
   3.10887500000000        -6.618536962458282E-006
   3.22192500000000        -7.268462301447563E-006
   3.33497500000000        -7.925613037929166E-006
   3.44802500000000        -8.571872840929413E-006
   3.56107500000000        -9.212006555063471E-006
   3.67412500000000        -9.826258951453746E-006
   3.78717500000000        -1.042260419613951E-005
   3.90022500000000        -1.097999494571483E-005
   4.01327500000000        -1.151166310993423E-005
   4.12632500000000        -1.200061016752679E-005
   4.23937500000000        -1.245096438929729E-005
   4.35242500000000        -1.286267543822678E-005
   4.46547500000000        -1.323794783400825E-005
   4.57852500000000        -1.357979956250131E-005
   4.69157500000000        -1.389416962930387E-005
   4.80462500000000        -1.418718412451697E-005
   4.91767500000000        -1.446814697693934E-005
   5.03072500000000        -1.474439944636710E-005
   5.14377500000000        -1.502672119054845E-005
   5.25682500000000        -1.532561375118083E-005
   5.36987500000000        -1.565094483076030E-005
   5.48292500000000        -1.601229719573266E-005
   5.59597500000000        -1.641886430197963E-005
   5.70902500000000        -1.687890353769684E-005
   5.82207500000000        -1.739756804361435E-005
   5.93512500000000        -1.797918930624222E-005
   6.04817500000000        -1.862481665693122E-005
   6.16122500000000        -1.933389663783831E-005
   6.27427500000000        -2.010276385271797E-005
   6.38732500000000        -2.092504002126876E-005
   6.50037500000000        -2.179132398243107E-005
   6.61342500000000        -2.269050220710724E-005
   6.72647500000000        -2.360835969311540E-005
   6.83952500000000        -2.452925289156537E-005
   6.95257500000000        -2.543592691209641E-005
   7.06562500000000        -2.631050971293295E-005
   7.17867500000000        -2.713372676352092E-005
   7.29172500000000        -2.788884958814077E-005
   7.40477500000000        -2.855777775613458E-005
   7.51782500000000        -2.912561744413540E-005
   7.63087500000000        -2.958017867585008E-005
   7.74392500000000        -2.991044852197862E-005
   7.85697500000000        -3.010874088986159E-005
   7.97002500000000        -3.017234052719792E-005
   8.08307500000000        -3.010181827960504E-005
   8.19612500000000        -2.990182914166415E-005
   8.30917500000000        -2.958207272310576E-005
   8.42222500000000        -2.915506279430143E-005
   8.53527500000000        -2.863613552258290E-005
   8.64832500000000        -2.804002567996482E-005
   8.76137500000000        -2.738783225514204E-005
   8.87442500000000        -2.669899246591438E-005
   8.98747500000000        -2.599537926674502E-005
   9.10052500000000        -2.529688647254083E-005
   9.21357500000000        -2.462238522993495E-005
   9.32662500000000        -2.398829409989318E-005
   9.43967500000000        -2.340866039159704E-005
   9.55272500000000        -2.289294619409247E-005
   9.66577500000000        -2.244730064109899E-005
   9.77882500000000        -2.207334953441419E-005
   9.89187500000000        -2.176780279439514E-005
   10.0049250000000        -2.152286074296902E-005
   10.1179750000000        -2.132781673236001E-005
   10.2310250000000        -2.116942385538328E-005
   10.3440750000000        -2.102939971681526E-005
   10.4571250000000        -2.088773016123092E-005
   10.5701750000000        -2.072426083363222E-005
   10.6832250000000        -2.051905521059318E-005
   10.7962750000000        -2.025282745425040E-005
   10.9093250000000        -1.990858756481998E-005
   11.0223750000000        -1.947262663839213E-005
   11.1354250000000        -1.893875893453137E-005
   11.2484750000000        -1.829321880421283E-005
   11.3615250000000        -1.754349510445125E-005
   11.4745750000000        -1.668777830958847E-005
   11.5876250000000        -1.574434765518156E-005
   11.7006750000000        -1.471747787903664E-005
   11.8137250000000        -1.363738061961288E-005
   11.9267750000000        -1.251535107494880E-005
   12.0398250000000        -1.138789012554300E-005
   12.1528750000000        -1.027007448074931E-005
   12.2659250000000        -9.199796854565772E-006
   12.3789750000000        -8.192883868382232E-006
   12.4920250000000        -7.278397758924694E-006
   12.6050750000000        -6.477250131569061E-006
   12.7181250000000        -5.804991255848094E-006
   12.8311750000000        -5.271482953178399E-006
   12.9442250000000        -4.883203297448770E-006
   13.0572750000000        -4.639394798402694E-006
   13.1703250000000        -4.533458757477012E-006
   13.2833750000000        -4.552596686460560E-006
   13.3964250000000        -4.678801514383045E-006
   13.5094750000000        -4.889484818798436E-006
   13.6225250000000        -5.159424944744047E-006
   13.7355750000000        -5.460173626104745E-006
   13.8486250000000        -5.763954256419227E-006
   13.9616750000000        -6.040980884127085E-006
   14.0747250000000        -6.264711544648390E-006
   14.1877750000000        -6.410102709034102E-006
   14.3008250000000        -6.456705252880119E-006
   14.4138750000000        -6.389493272755830E-006
   14.5269250000000        -6.199696901704558E-006
   14.6399750000000        -5.885319581155562E-006
   14.7530250000000        -5.445280574718044E-006
   14.8660750000000        -4.888766422560649E-006
   14.9791250000000        -4.233517132496213E-006
   15.0921750000000        -3.484534437832800E-006
   15.2052250000000        -2.683491549120940E-006
   15.3182750000000        -1.836406046448832E-006
   15.4313250000000        -9.909437055474568E-007
   15.5443750000000        -1.542457266471584E-007
   15.6574250000000         6.253912333455131E-007
   15.7704750000000         1.343640871574347E-006
   15.8835250000000         1.960334334038434E-006
   15.9965750000000         2.468404944367683E-006
   16.1096250000000         2.849438829588835E-006
   16.2226750000000         3.093619564233953E-006
   16.3357250000000         3.198032252211156E-006
   16.4487750000000         3.164301330485179E-006
   16.5618250000000         2.998020150728486E-006
   16.6748750000000         2.710286398241141E-006
   16.7879250000000         2.316986297166025E-006
   16.9009750000000         1.836507101746222E-006
   17.0140250000000         1.286015176803136E-006
   17.1270750000000         6.851197179063291E-007
   17.2401250000000         5.302753258377516E-008
   17.3531750000000        -5.932256784491473E-007
   17.4662250000000        -1.233714599942838E-006
   17.5792750000000        -1.863242811426536E-006
   17.6923250000000        -2.460914177165498E-006
   17.8053750000000        -3.032534671037044E-006
   17.9184250000000        -3.561469072004317E-006
   18.0314750000000        -4.067318032511056E-006
   18.1445250000000        -4.532284769162768E-006
   18.2575750000000        -4.988365788995284E-006
   18.3706250000000        -5.423038787063637E-006
   18.4836750000000        -5.870407477537659E-006
   18.5967250000000        -6.322361089781064E-006
   18.7097750000000        -6.814644579833449E-006
   18.8228250000000        -7.338138243058828E-006
   18.9358750000000        -7.927507909837358E-006
   19.0489250000000        -8.569146856287553E-006
   19.1619750000000        -9.294721923070870E-006
   19.2750250000000        -1.008596525356044E-005
   19.3880750000000        -1.096743565572646E-005
   19.5011250000000        -1.191494763312370E-005
   19.6141750000000        -1.294601750423950E-005
   19.7272250000000        -1.403035876348042E-005
   19.8402750000000        -1.517909751106573E-005
   19.9533250000000        -1.635756622843358E-005
   20.0663750000000        -1.757100184427983E-005
   20.1794250000000        -1.878282856410814E-005
   20.2924750000000        -1.999492358543779E-005
   20.4055250000000        -2.117094689463563E-005
   20.5185750000000        -2.230796169007784E-005
   20.6316250000000        -2.337844280146010E-005
   20.7446750000000        -2.437042921330269E-005
   20.8577250000000        -2.526934490754618E-005
   20.9707750000000        -2.606140318193884E-005
   21.0838250000000        -2.673661204535811E-005
   21.1968750000000        -2.728625271510231E-005
   21.3099250000000        -2.770494175418219E-005
   21.4229750000000        -2.798955132111271E-005
   21.5360250000000        -2.814048107913363E-005
   21.6490750000000        -2.816028900730783E-005
   21.7621250000000        -2.805447922896642E-005
   21.8751750000000        -2.782888362860083E-005
   21.9882250000000        -2.749323994659151E-005
   22.1012750000000        -2.705928833737338E-005
   22.2143250000000        -2.654030570334082E-005
   22.3273750000000        -2.595137452993094E-005
   22.4404250000000        -2.530888471163560E-005
   22.5534750000000        -2.463027227104020E-005
   22.6665250000000        -2.393376312028343E-005
   22.7795750000000        -2.323774812118175E-005
   22.8926250000000        -2.256091665256979E-005
   23.0056750000000        -2.192110122584311E-005
   23.1187250000000        -2.133609848053049E-005
   23.2317750000000        -2.082171384582269E-005
   23.3448250000000        -2.039267373058304E-005
   23.4578750000000        -2.006152531876290E-005
   23.5709250000000        -1.983837097033087E-005
   23.6839750000000        -1.973076734986118E-005
   23.7970250000000        -1.974367892624797E-005
   23.9100750000000        -1.987874531497285E-005
   24.0231250000000        -2.013472396225815E-005
   24.1361750000000        -2.050767648995147E-005
   24.2492250000000        -2.099057244856455E-005
   24.3622750000000        -2.157409823527234E-005
   24.4753250000000        -2.224659359222656E-005
   24.5883750000000        -2.299488005092843E-005
   24.7014250000000        -2.380343876838368E-005
   24.8144750000000        -2.465630855794295E-005
   24.9275250000000        -2.553653076413729E-005
   25.0405750000000        -2.642698887230473E-005
   25.1536250000000        -2.731111421728032E-005
   25.2666750000000        -2.817309260622814E-005
   25.3797250000000        -2.899825307331359E-005
   25.4927750000000        -2.977266863792721E-005
   25.6058250000000        -3.048331710665411E-005
   25.7188750000000        -3.111999161871653E-005
   25.8319250000000        -3.167341217166794E-005
   25.9449750000000        -3.213558703214173E-005
   26.0580250000000        -3.250034261317946E-005
   26.1710750000000        -3.276230725838351E-005
   26.2841250000000        -3.291737526020244E-005
   26.3971750000000        -3.296189371452271E-005
   26.5102250000000        -3.289276813899995E-005
   26.6232750000000        -3.270715873882636E-005
   26.7363250000000        -3.240265057558223E-005
   26.8493750000000        -3.198109408861546E-005
   26.9624250000000        -3.142651745709514E-005
   27.0754750000000        -3.075427274647184E-005
   27.1885250000000        -2.994421369219055E-005
   27.3015750000000        -2.901686348037183E-005
   27.4146250000000        -2.795470150421060E-005
   27.5276750000000        -2.676808421961902E-005
   27.6407250000000        -2.545844805271193E-005
   27.7537750000000        -2.403263776594810E-005
   27.8668250000000        -2.249887686848330E-005
   27.9798750000000        -2.086878142253690E-005
   28.0929250000000        -1.915651427762766E-005
   28.2059750000000        -1.737933964937445E-005
   28.3190250000000        -1.555692318453921E-005
   28.4320750000000        -1.371159537871519E-005
   28.5451250000000        -1.186731247105855E-005
   28.6581750000000        -1.005024207395544E-005
   28.7712250000000        -8.286976390682329E-006
   28.8842750000000        -6.604265920563571E-006
   28.9973250000000        -5.028157631438880E-006
   29.1103750000000        -3.581815002663772E-006
   29.2234250000000        -2.292900345601387E-006
   29.3364750000000        -1.170491745657369E-006
   29.4495250000000        -2.415438209125921E-007
   29.5625750000000         4.877010879222697E-007
   29.6756250000000         1.010672006161676E-006
   29.7886750000000         1.327016668268616E-006
   29.9017250000000         1.436253290371294E-006
   30.0147750000000         1.347830835739116E-006
   30.1278250000000         1.073865296056502E-006
   30.2408750000000         6.292681975074425E-007
   30.3539250000000         3.599149973886919E-008
   30.4669750000000        -6.833013735410175E-007
   30.5800250000000        -1.505670877319859E-006
   30.6930750000000        -2.407366248199305E-006
   30.8061250000000        -3.363727397571011E-006
   30.9191750000000        -4.352005576648254E-006
   31.0322250000000        -5.349928803052739E-006
   31.1452750000000        -6.338364188439870E-006
   31.2583250000000        -7.299809355077565E-006
   31.3713750000000        -8.221101663543697E-006
   31.4844250000000        -9.091003382852922E-006
   31.5974750000000        -9.902121806092711E-006
   31.7105250000000        -1.064986441266784E-005
   31.8235750000000        -1.133242584489690E-005
   31.9366250000000        -1.195023732583179E-005
   32.0496750000000        -1.250594632436919E-005
   32.1627250000000        -1.300291081007930E-005
   32.2757750000000        -1.344572186534585E-005
   32.3888250000000        -1.383943493299979E-005
   32.5018750000000        -1.418846528671066E-005
   32.6149250000000        -1.449723031327495E-005
   32.7279750000000        -1.476945472249572E-005
   32.8410250000000        -1.500733859948713E-005
   32.9540750000000        -1.521355917008317E-005
   33.0671250000000        -1.538817976626004E-005
   33.1801750000000        -1.553263558158720E-005
   33.2932250000000        -1.564706945817144E-005
   33.4062750000000        -1.573106658678608E-005
   33.5193250000000        -1.578544591053371E-005
   33.6323750000000        -1.581194984003744E-005
   33.7454250000000        -1.581259914185109E-005
   33.8584750000000        -1.579123917498223E-005
   33.9715250000000        -1.575290432220313E-005
   34.0845750000000        -1.570431107140789E-005
   34.1976250000000        -1.565356747198959E-005
   34.3106750000000        -1.561033140843460E-005
   34.4237250000000        -1.558451131111770E-005
   34.5367750000000        -1.558722239033897E-005
   34.6498250000000        -1.562928927718200E-005
   34.7628750000000        -1.572133730666137E-005
   34.8759250000000        -1.587262628537751E-005
   34.9889750000000        -1.609119087979723E-005
   35.1020250000000        -1.638272029485180E-005
   35.2150750000000        -1.675079757402727E-005
   35.3281250000000        -1.719584606023272E-005
   35.4411750000000        -1.771558316687631E-005
   35.5542250000000        -1.830478293274562E-005
   35.6672750000000        -1.895548634480417E-005
   35.7803250000000        -1.965364897082145E-005
   35.8933750000000        -2.039519822598839E-005
   36.0064250000000        -2.115674064984374E-005
   36.1194750000000        -2.193191312189637E-005
   36.2325250000000        -2.269535143161968E-005
   36.3455750000000        -2.344386606424678E-005
   36.4586250000000        -2.415131159013973E-005
   36.5716750000000        -2.482030795303972E-005
   36.6847250000000        -2.542745877518101E-005
   36.7977750000000        -2.598292620621456E-005
   36.9108250000000        -2.646866707066709E-005
   37.0238750000000        -2.690252593295005E-005
   37.1369250000000        -2.727871543054052E-005
   37.2499750000000        -2.760819032469681E-005
   37.3630250000000        -2.790325384499756E-005
   37.4760750000000        -2.817855544581676E-005
   37.5891250000000        -2.845010374259823E-005
   37.7021750000000        -2.873498595693615E-005
   37.8152250000000        -2.905037990883869E-005
   37.9282750000000        -2.941277439447839E-005
   38.0413250000000        -2.983671622380343E-005
   38.1543750000000        -3.033428967988775E-005
   38.2674250000000        -3.091433705083738E-005
   38.3804750000000        -3.158177449239607E-005
   38.4935250000000        -3.233787985524319E-005
   38.6065750000000        -3.317599172693986E-005
   38.7196250000000        -3.409089345489110E-005
   38.8326750000000        -3.506658904608272E-005
   38.9457250000000        -3.608449258171569E-005
   39.0587750000000        -3.712720162695291E-005
   39.1718250000000        -3.816733313272583E-005
   39.2848750000000        -3.917884353216142E-005
   39.3979250000000        -4.013422123403899E-005
   39.5109750000000        -4.100544482222399E-005
   39.6240250000000        -4.176515546219882E-005
   39.7370750000000        -4.238784956245353E-005
   39.8501250000000        -4.285066715232386E-005
   39.9631750000000        -4.313434428007788E-005
   40.0762250000000        -4.322388333476747E-005
   40.1892750000000        -4.310913142143778E-005
   40.3023250000000        -4.278543524234811E-005
   40.4153750000000        -4.225350443770008E-005
   40.5284250000000        -4.151948452653434E-005
   40.6414750000000        -4.059497460267720E-005
   40.7545250000000        -3.949899025395455E-005
   40.8675750000000        -3.824643946145522E-005
   40.9806250000000        -3.686886572403450E-005
   41.0936750000000        -3.538447390678215E-005
   41.2067250000000        -3.383817952113472E-005
   41.3197750000000        -3.224557273481646E-005
   41.4328250000000        -3.064853894767099E-005
   41.5458750000000        -2.907447518612403E-005
   41.6589250000000        -2.755427670974917E-005
   41.7719750000000        -2.611600339183321E-005
   41.8850250000000        -2.478505465776092E-005
   41.9980750000000        -2.358318340868738E-005
   42.1111250000000        -2.252758697337249E-005
   42.2241750000000        -2.163407831441005E-005
   42.3372250000000        -2.090883627327478E-005
   42.4502750000000        -2.036033718106216E-005
   42.5633250000000        -1.998599040665033E-005
   42.6763750000000        -1.978263535172453E-005
   42.7894250000000        -1.974190982600137E-005
   42.9024750000000        -1.985260872038533E-005
   43.0155250000000        -2.009964589413336E-005
   43.1285750000000        -2.046471653513347E-005
   43.2416250000000        -2.093209693289638E-005
   43.3546750000000        -2.148044558748445E-005
   43.4677250000000        -2.208832297848156E-005
   43.5807750000000        -2.273465774084115E-005
   43.6938250000000        -2.339922381005209E-005
   43.8068750000000        -2.406231841912955E-005
   43.9199250000000        -2.470594134692582E-005
   44.0329750000000        -2.531396745615603E-005
   44.1460250000000        -2.587238395906546E-005
   44.2590750000000        -2.636922083683207E-005
   44.3721250000000        -2.679489135772294E-005
   44.4851750000000        -2.714250772144902E-005
   44.5982250000000        -2.740716241660922E-005
   44.7112750000000        -2.758635033907755E-005
   44.8243250000000        -2.767939363681395E-005
   44.9373750000000        -2.768642369206586E-005
   45.0504250000000        -2.760963475456238E-005
   45.1634750000000        -2.745186141535318E-005
   45.2765250000000        -2.721679762398953E-005
   45.3895750000000        -2.690854369029500E-005
   45.5026250000000        -2.653140110883633E-005
   45.6156750000000        -2.608985460541605E-005
   45.7287250000000        -2.558806614320132E-005
   45.8417750000000        -2.503004544967092E-005
   45.9548250000000        -2.441924604048334E-005
   46.0678750000000        -2.375969088262695E-005
   46.1809250000000        -2.305453423869565E-005
   46.2939750000000        -2.230747844962583E-005
   46.4070250000000        -2.152234283582712E-005
   46.5200750000000        -2.070371900614707E-005
   46.6331250000000        -1.985639518988440E-005
   46.7461750000000        -1.898675759990299E-005
   46.8592250000000        -1.810213025127767E-005
   46.9722750000000        -1.721131609316818E-005
   47.0853250000000        -1.632423437463946E-005
   47.1983750000000        -1.545274974678830E-005
   47.3114250000000        -1.460996151616449E-005
   47.4244750000000        -1.381013900109987E-005
   47.5375250000000        -1.306884561230680E-005
   47.6505750000000        -1.240129258188923E-005
   47.7636250000000        -1.182543568312331E-005
   47.8766750000000        -1.135778592408816E-005
   47.9897250000000        -1.101436344852261E-005
   48.1027750000000        -1.080971892500374E-005
   48.2158250000000        -1.075697193180030E-005
   48.3288750000000        -1.086686501531898E-005
   48.4419250000000        -1.114743117338518E-005
   48.5549750000000        -1.160340198113058E-005
   48.6680250000000        -1.223630162452274E-005
   48.7810750000000        -1.304331605034971E-005
   48.8941250000000        -1.401447954190899E-005
   49.0071750000000        -1.515015878264404E-005
   49.1202250000000        -1.642423202558129E-005
   49.2332750000000        -1.782923211410029E-005
   49.3463250000000        -1.934003370627883E-005
   49.4593750000000        -2.093470248687164E-005
   49.5724250000000        -2.258778007561126E-005
   49.6854750000000        -2.427328853146816E-005
   49.7985250000000        -2.596402806128443E-005
   49.9115750000000        -2.763390947189544E-005
   50.0246250000000        -2.925736562499504E-005
   50.1376750000000        -3.081051374029127E-005
   50.2507250000000        -3.227268064727549E-005
   50.3637750000000        -3.362906026886408E-005
   50.4768250000000        -3.485475604245174E-005
   50.5898750000000        -3.595406647883503E-005
   50.7029250000000        -3.691177548424936E-005
   50.8159750000000        -3.772839555113293E-005
   50.9290250000000        -3.840693455806678E-005
   51.0420750000000        -3.895454210048333E-005
   51.1551250000000        -3.938219757489335E-005
   51.2681750000000        -3.970359752536143E-005
   51.3812250000000        -3.993498366428874E-005
   51.4942750000000        -4.009449233691253E-005
   51.6073250000000        -4.020144344205411E-005
   51.7203750000000        -4.027542448710094E-005
   51.8334250000000        -4.033449069229570E-005
   51.9464750000000        -4.039700971443135E-005
   52.0595250000000        -4.047769330015001E-005
   52.1725750000000        -4.058876839562453E-005
   52.2856250000000        -4.073937991917013E-005
   52.3986750000000        -4.093555964346270E-005
   52.5117250000000        -4.117853097604313E-005
   52.6247750000000        -4.146638599911967E-005
   52.7378250000000        -4.179636788655584E-005
   52.8508750000000        -4.215900353953293E-005
   52.9639250000000        -4.254284671455067E-005
   53.0769750000000        -4.293455685911517E-005
   53.1900250000000        -4.331931931772821E-005
   53.3030750000000        -4.368167636416500E-005
   53.4161250000000        -4.400606485691601E-005
   53.5291750000000        -4.427975786199240E-005
   53.6422250000000        -4.448660558386965E-005
   53.7552750000000        -4.461671784682072E-005
   53.8683250000000        -4.466332709869970E-005
   53.9813750000000        -4.462148476521972E-005
   54.0944250000000        -4.449119599904888E-005
   54.2074750000000        -4.427616540329672E-005
   54.3205250000000        -4.398307715666180E-005
   54.4335750000000        -4.362523627449718E-005
   54.5466250000000        -4.321597905453066E-005
   54.6596750000000        -4.277259622463515E-005
   54.7727250000000        -4.231338914682789E-005
   54.8857750000000        -4.185910108258740E-005
   54.9988250000000        -4.142926894491395E-005
   55.1118750000000        -4.104380601013443E-005
   55.2249250000000        -4.072051339435485E-005
   55.3379750000000        -4.047557986848492E-005
   55.4510250000000        -4.032096955960871E-005
   55.5640750000000        -4.026536139085352E-005
   55.6771250000000        -4.031301912432955E-005
   55.7901750000000        -4.046372313210318E-005
   55.9032250000000        -4.071230720120676E-005
   56.0162750000000        -4.104915527647234E-005
   56.1293250000000        -4.146065756577393E-005
   56.2423750000000        -4.192908047644069E-005
   56.3554250000000        -4.243394969909554E-005
   56.4684750000000        -4.295268557299872E-005
   56.5815250000000        -4.346143617319344E-005
   56.6945750000000        -4.393651796594047E-005
   56.8076250000000        -4.435483912669347E-005
   56.9206750000000        -4.469559964486562E-005
   57.0337250000000        -4.494063302332403E-005
   57.1467750000000        -4.507535652405863E-005
   57.2598250000000        -4.509147954464488E-005
   57.3728750000000        -4.497945411686444E-005
   57.4859250000000        -4.473971322642332E-005
   57.5989750000000        -4.437577295703172E-005
   57.7120250000000        -4.389648514609822E-005
   57.8250750000000        -4.331361353537729E-005
   57.9381250000000        -4.264521690101064E-005
   58.0511750000000        -4.189766159781024E-005
   58.1642250000000        -4.111138037246212E-005
   58.2772750000000        -4.028389480474151E-005
   58.3903250000000        -3.945496762770016E-005
   58.5033750000000        -3.862682271560067E-005
   58.6164250000000        -3.782970878612886E-005
   58.7294750000000        -3.706485178915249E-005
   58.8425250000000        -3.635227748795126E-005
   58.9555750000000        -3.568963913873607E-005
   59.0686250000000        -3.508320230383412E-005
   59.1816750000000        -3.453447664460405E-005
   59.2947250000000        -3.403049432457675E-005
   59.4077750000000        -3.356597188833309E-005
   59.5208250000000        -3.313185427522707E-005
   59.6338750000000        -3.271495178486911E-005
   59.7469250000000        -3.230247712143544E-005
   59.8599750000000        -3.188217372962877E-005
   59.9730250000000        -3.144291775242603E-005
   60.0860750000000        -3.097626957064868E-005
   60.1991250000000        -3.047697325740680E-005
   60.3121750000000        -2.994298134048837E-005
   60.4252250000000        -2.937977292514782E-005
   60.5382750000000        -2.878588816133386E-005
   60.6513250000000        -2.817622052481973E-005
   60.7643750000000        -2.756611909957952E-005
   60.8774250000000        -2.697276397794551E-005
   60.9904750000000        -2.641531090222195E-005
   61.1035250000000        -2.591516304352694E-005
   61.2165750000000        -2.549435809973436E-005
   61.3296250000000        -2.517368400055483E-005
   61.4426750000000        -2.497470030155149E-005
   61.5557250000000        -2.491352081322343E-005
   61.6687750000000        -2.500372055799034E-005
   61.7818250000000        -2.525312779865253E-005
   61.8948750000000        -2.566547908207753E-005
   62.0079250000000        -2.623889996780575E-005
   62.1209750000000        -2.696728737936910E-005
   62.2340250000000        -2.783199107678478E-005
   62.3470750000000        -2.883458891222344E-005
   62.4601250000000        -2.993136572151521E-005
   62.5731750000000        -3.112018474005619E-005
   62.6862250000000        -3.235181114959513E-005
   62.7992750000000        -3.361997288857589E-005
   62.9123250000000        -3.487749112984518E-005
   63.0253750000000        -3.611505760126776E-005
   63.1384250000000        -3.729195789707226E-005
   63.2514750000000        -3.840169021055043E-005
   63.3645250000000        -3.941330740415887E-005
   63.4775750000000        -4.032568740738045E-005
   63.5906250000000        -4.112449826117967E-005
   63.7036750000000        -4.180710213966059E-005
   63.8167250000000        -4.237600334874271E-005
   63.9297750000000        -4.283803234756149E-005
   64.0428250000000        -4.320399266021139E-005
   64.1558750000000        -4.348767488679323E-005
   64.2689250000000        -4.370540969386568E-005
   64.3819750000000        -4.387520325507432E-005
   64.4950250000000        -4.401486892389896E-005
   64.6080750000000        -4.414236722101365E-005
   64.7211250000000        -4.427386269211935E-005
   64.8341750000000        -4.442353185966166E-005
   64.9472250000000        -4.460262748239551E-005
   65.0602750000000        -4.481913749366422E-005
   65.1733250000000        -4.507774598342251E-005
   65.2863750000000        -4.537944124440730E-005
   65.3994250000000        -4.572202006101794E-005
   65.5124750000000        -4.609995965416911E-005