 -0.847875000000000         2.493015546735400E-020
 -0.734825000000000         1.067723498181106E-019
 -0.621775000000000         4.150947495212170E-019
 -0.508725000000000         1.759943816629557E-018
 -0.395675000000000         6.935574960583480E-018
 -0.282625000000000         2.372321410093602E-017
 -0.169575000000000         7.009888701934330E-017
 -5.652500000000005E-002    1.800986889198531E-016
  5.652499999999994E-002    4.053271896295157E-016
  0.169575000000000         8.023314551120066E-016
  0.282625000000000         1.406072288804774E-015
  0.395675000000000         2.185470760827011E-015
  0.508725000000000         2.982651981919523E-015
  0.621775000000000         3.446008858305580E-015
  0.734825000000000         2.973922290800114E-015
  0.847875000000000         6.617515895065319E-016
  0.960925000000000        -4.792510083520743E-015
   1.07397500000000        -1.514534078030158E-014
   1.18702500000000        -3.261725815338755E-014
   1.30007500000000        -5.997644291107010E-014
   1.41312500000000        -1.005927017929717E-013
   1.52617500000000        -1.584557029283272E-013
   1.63922500000000        -2.382037590845241E-013
   1.75227500000000        -3.451643689221943E-013
   1.86532500000000        -4.854426056767601E-013
   1.97837500000000        -6.657130541948022E-013
   2.09142500000000        -8.932223602867273E-013
   2.20447500000000        -1.175872904672964E-012
   2.31752500000000        -1.521994733308405E-012
   2.43057500000000        -1.940417942921912E-012
   2.54362500000000        -2.440367380394992E-012
   2.65667500000000        -3.031134663562375E-012
   2.76972500000000        -3.722000938438563E-012
   2.88277500000000        -4.522186634018360E-012
   2.99582500000000        -5.440562240348382E-012
   3.10887500000000        -6.485485585056039E-012
   3.22192500000000        -7.664717996518344E-012
   3.33497500000000        -8.985245037153161E-012
   3.44802500000000        -1.045319352579094E-011
   3.56107500000000        -1.207349727550486E-011
   3.67412500000000        -1.384999152133430E-011
   3.78717500000000        -1.578527344926356E-011
   3.90022500000000        -1.788068047049195E-011
   4.01327500000000        -2.013660141877121E-011
   4.12632500000000        -2.255199996961861E-011
   4.23937500000000        -2.512476389926837E-011
   4.35242500000000        -2.785190752435800E-011
   4.46547500000000        -3.072976887326467E-011
   4.57852500000000        -3.375431229812094E-011
   4.69157500000000        -3.692109616174399E-011
   4.80462500000000        -4.022578156681883E-011
   4.91767500000000        -4.366433509326845E-011
   5.03072500000000        -4.723326209905256E-011
   5.14377500000000        -5.093001615223625E-011
   5.25682500000000        -5.475302787679416E-011
   5.36987500000000        -5.870183258808438E-011
   5.48292500000000        -6.277737088404925E-011
   5.59597500000000        -6.698208545050067E-011
   5.70902500000000        -7.131980538521474E-011
   5.82207500000000        -7.579539723071754E-011
   5.93512500000000        -8.041513863978578E-011
   6.04817500000000        -8.518638522856989E-011
   6.16122500000000        -9.011654590865908E-011
   6.27427500000000        -9.521294871649270E-011
   6.38732500000000        -1.004826710937118E-010
   6.50037500000000        -1.059321569055906E-010
   6.61342500000000        -1.115661098410292E-010
   6.72647500000000        -1.173872489553280E-010
   6.83952500000000        -1.233956886995104E-010
   6.95257500000000        -1.295889623003009E-010
   7.06562500000000        -1.359613933291841E-010
   7.17867500000000        -1.425029949215728E-010
   7.29172500000000        -1.492002618333862E-010
   7.40477500000000        -1.560361825503182E-010
   7.51782500000000        -1.629900120500822E-010
   7.63087500000000        -1.700373078431670E-010
   7.74392500000000        -1.771510819334436E-010
   7.85697500000000        -1.843019576131584E-010
   7.97002500000000        -1.914582018020227E-010
   8.08307500000000        -1.985874250615453E-010
   8.19612500000000        -2.056572861614745E-010
   8.30917500000000        -2.126361151603184E-010
   8.42222500000000        -2.194937836412863E-010
   8.53527500000000        -2.262027626873745E-010
   8.64832500000000        -2.327390685537659E-010
   8.76137500000000        -2.390826038907506E-010
   8.87442500000000        -2.452180063950768E-010
   8.98747500000000        -2.511348786446109E-010
   9.10052500000000        -2.568279725240314E-010
   9.21357500000000        -2.622974603680873E-010
   9.32662500000000        -2.675486467007292E-010
   9.43967500000000        -2.725912367715979E-010
   9.55272500000000        -2.774388873548670E-010
   9.66577500000000        -2.821086298719318E-010
   9.77882500000000        -2.866198480903651E-010
   9.89187500000000        -2.909932625494498E-010
   10.0049250000000        -2.952497329214394E-010
   10.1179750000000        -2.994095080530441E-010
   10.2310250000000        -3.034912932076098E-010
   10.3440750000000        -3.075109228316185E-010
   10.4571250000000        -3.114808882768077E-010
   10.5701750000000        -3.154098785528379E-010
   10.6832250000000        -3.193023310655617E-010
   10.7962750000000        -3.231582237457621E-010
   10.9093250000000        -3.269732601350554E-010
   11.0223750000000        -3.307392208944383E-010
   11.1354250000000        -3.344444968526756E-010
   11.2484750000000        -3.380751113353199E-010
   11.3615250000000        -3.416153097466022E-010
   11.4745750000000        -3.450486844264486E-010
   11.5876250000000        -3.483594123911406E-010
   11.7006750000000        -3.515333696952847E-010
   11.8137250000000        -3.545590605361431E-010
   11.9267750000000        -3.574283516059784E-010
   12.0398250000000        -3.601376229907072E-010
   12.1528750000000        -3.626882108588263E-010
   12.2659250000000        -3.650864368181069E-010
   12.3789750000000        -3.673437622408184E-010
   12.4920250000000        -3.694766826608854E-010
   12.6050750000000        -3.715060863572042E-010
   12.7181250000000        -3.734565246121837E-010
   12.8311750000000        -3.753549914982928E-010
   12.9442250000000        -3.772302085247786E-010
   13.0572750000000        -3.791111203142730E-010
   13.1703250000000        -3.810252198722035E-010
   13.2833750000000        -3.829978734234860E-010
   13.3964250000000        -3.850506145241745E-010
   13.5094750000000        -3.872001528583847E-010
   13.6225250000000        -3.894574544039332E-010
   13.7355750000000        -3.918270704020335E-010
   13.8486250000000        -3.943068949195110E-010
   13.9616750000000        -3.968881243742721E-010
   14.0747250000000        -3.995550224192795E-010
   14.1877750000000        -4.022858766290734E-010
   14.3008250000000        -4.050539050577572E-010
   14.4138750000000        -4.078279528722740E-010
   14.5269250000000        -4.105743216220306E-010
   14.6399750000000        -4.132579683020610E-010
   14.7530250000000        -4.158435826601219E-010
   14.8660750000000        -4.182974993364626E-010
   14.9791250000000        -4.205893873606861E-010
   15.0921750000000        -4.226928780185102E-010
   15.2052250000000        -4.245870647175986E-010
   15.3182750000000        -4.262576558890730E-010
   15.4313250000000        -4.276971923282136E-010
   15.5443750000000        -4.289051942284053E-010
   15.6574250000000        -4.298886215946832E-010
   15.7704750000000        -4.306612490149475E-010
   15.8835250000000        -4.312431414342117E-010
   15.9965750000000        -4.316598658985732E-010
   16.1096250000000        -4.319412767876615E-010
   16.2226750000000        -4.321205222513362E-010
   16.3357250000000        -4.322324490724256E-010
   16.4487750000000        -4.323126260913342E-010
   16.5618250000000        -4.323958007673488E-010
   16.6748750000000        -4.325146803345110E-010
   16.7879250000000        -4.326991178609181E-010
   16.9009750000000        -4.329753072682648E-010
   17.0140250000000        -4.333649854116250E-010
   17.1270750000000        -4.338850860619530E-010
   17.2401250000000        -4.345479413530482E-010
   17.3531750000000        -4.353610505585409E-010
   17.4662250000000        -4.363277938114943E-010
   17.5792750000000        -4.374479825727348E-010
   17.6923250000000        -4.387182270294273E-010
   17.8053750000000        -4.401334755187189E-010
   17.9184250000000        -4.416876406025180E-010
   18.0314750000000        -4.433743612098194E-010
   18.1445250000000        -4.451883818164397E-010
   18.2575750000000        -4.471260028920570E-010
   18.3706250000000        -4.491856241560490E-010
   18.4836750000000        -4.513687845504028E-010
   18.5967250000000        -4.536802993338127E-010
   18.7097750000000        -4.561281554269191E-010
   18.8228250000000        -4.587235638212702E-010
   18.9358750000000        -4.614808173454668E-010
   19.0489250000000        -4.644168748774279E-010
   19.1619750000000        -4.675503875282118E-010
   19.2750250000000        -4.709012483008561E-010
   19.3880750000000        -4.744897314298939E-010
   19.5011250000000        -4.783354592847391E-010
   19.6141750000000        -4.824567688452622E-010
   19.7272250000000        -4.868696794611941E-010
   19.8402750000000        -4.915871163169854E-010
   19.9533250000000        -4.966182904525777E-010
   20.0663750000000        -5.019681996839587E-010
   20.1794250000000        -5.076371396225897E-010
   20.2924750000000        -5.136205218608652E-010
   20.4055250000000        -5.199087186043823E-010
   20.5185750000000        -5.264870656006390E-010
   20.6316250000000        -5.333362867931396E-010
   20.7446750000000        -5.404327861016694E-010
   20.8577250000000        -5.477491733686594E-010
   20.9707750000000        -5.552547935155179E-010
   21.0838250000000        -5.629162169427151E-010
   21.1968750000000        -5.706981498692748E-010
   21.3099250000000        -5.785641563034431E-010
   21.4229750000000        -5.864771508081093E-010
   21.5360250000000        -5.944004714476566E-010
   21.6490750000000        -6.022982911478351E-010
   21.7621250000000        -6.101363853001563E-010
   21.8751750000000        -6.178827052712094E-010
   21.9882250000000        -6.255078845243895E-010
   22.1012750000000        -6.329856380846705E-010
   22.2143250000000        -6.402932936467527E-010
   22.3273750000000        -6.474120576390413E-010
   22.4404250000000        -6.543269716734619E-010
   22.5534750000000        -6.610273412871576E-010
   22.6665250000000        -6.675069514353631E-010
   22.7795750000000        -6.737641598859337E-010
   22.8926250000000        -6.798013384254851E-010
   23.0056750000000        -6.856251203954370E-010
   23.1187250000000        -6.912461376613626E-010
   23.2317750000000        -6.966787759585616E-010
   23.3448250000000        -7.019409195510501E-010
   23.4578750000000        -7.070533705353605E-010
   23.5709250000000        -7.120396875955432E-010
   23.6839750000000        -7.169254602583993E-010
   23.7970250000000        -7.217380562383243E-010
   23.9100750000000        -7.265061007577770E-010
   24.0231250000000        -7.312585025501979E-010
   24.1361750000000        -7.360239693968048E-010
   24.2492250000000        -7.408308822600815E-010
   24.3622750000000        -7.457066874393389E-010
   24.4753250000000        -7.506773371424931E-010
   24.5883750000000        -7.557669804178652E-010
   24.7014250000000        -7.609971355800953E-010
   24.8144750000000        -7.663868383118969E-010
   24.9275250000000        -7.719525197294692E-010
   25.0405750000000        -7.777075490243627E-010
   25.1536250000000        -7.836624109963826E-010
   25.2666750000000        -7.898245888874199E-010
   25.3797250000000        -7.961984859640166E-010
   25.4927750000000        -8.027857046834915E-010
   25.6058250000000        -8.095851071071702E-010
   25.7188750000000        -8.165927931109681E-010
   25.8319250000000        -8.238026168371042E-010
   25.9449750000000        -8.312061648255404E-010
   26.0580250000000        -8.387925699486797E-010
   26.1710750000000        -8.465487624299260E-010
   26.2841250000000        -8.544595042094044E-010
   26.3971750000000        -8.625078170278919E-010
   26.5102250000000        -8.706745215270111E-010
   26.6232750000000        -8.789381091431630E-010
   26.7363250000000        -8.872751091121534E-010
   26.8493750000000        -8.956599061976262E-010
   26.9624250000000        -9.040648406583505E-010
   27.0754750000000        -9.124600573149735E-010
   27.1885250000000        -9.208137554748594E-010
   27.3015750000000        -9.290924882137935E-010
   27.4146250000000        -9.372613531594039E-010
   27.5276750000000        -9.452844088014056E-010
   27.6407250000000        -9.531251947560456E-010
   27.7537750000000        -9.607472004232848E-010
   27.8668250000000        -9.681146277368634E-010
   27.9798750000000        -9.751930975553026E-010
   28.0929250000000        -9.819506745312294E-010
   28.2059750000000        -9.883585552476332E-010
   28.3190250000000        -9.943917704349075E-010
   28.4320750000000        -1.000030053824383E-009
   28.5451250000000        -1.005258546209354E-009
   28.6581750000000        -1.010068274366650E-009
   28.7712250000000        -1.014456687351606E-009
   28.8842750000000        -1.018428000238670E-009
   28.9973250000000        -1.021993270638535E-009
   29.1103750000000        -1.025170184267691E-009
   29.2234250000000        -1.027982724926006E-009
   29.3364750000000        -1.030460781925850E-009
   29.4495250000000        -1.032639255672348E-009
   29.5625750000000        -1.034557502836361E-009
   29.6756250000000        -1.036258129439112E-009
   29.7886750000000        -1.037785947910098E-009
   29.9017250000000        -1.039186694098769E-009
   30.0147750000000        -1.040506062003108E-009
   30.1278250000000        -1.041788942638192E-009
   30.2408750000000        -1.043077645667816E-009
   30.3539250000000        -1.044411313705168E-009
   30.4669750000000        -1.045825463052508E-009
   30.5800250000000        -1.047351077851076E-009
   30.6930750000000        -1.049014339698178E-009
   30.8061250000000        -1.050836523476960E-009
   30.9191750000000        -1.052833813323070E-009
   31.0322250000000        -1.055017417183713E-009
   31.1452750000000        -1.057394472115503E-009
   31.2583250000000        -1.059968250408337E-009
   31.3713750000000        -1.062738843005459E-009
   31.4844250000000        -1.065703730083556E-009
   31.5974750000000        -1.068858671309997E-009
   31.7105250000000        -1.072198635948178E-009
   31.8235750000000        -1.075718043614558E-009
   31.9366250000000        -1.079411716622348E-009
   32.0496750000000        -1.083275325057910E-009
   32.1627250000000        -1.087305697601579E-009
   32.2757750000000        -1.091501066409087E-009
   32.3888250000000        -1.095861107800204E-009
   32.5018750000000        -1.100387003000340E-009
   32.6149250000000        -1.105081461807647E-009
   32.7279750000000        -1.109947809910996E-009
   32.8410250000000        -1.114990023126886E-009
   32.9540750000000        -1.120212438457424E-009
   33.0671250000000        -1.125618940020909E-009
   33.1801750000000        -1.131212972530610E-009
   33.2932250000000        -1.136996516220534E-009
   33.4062750000000        -1.142969873451624E-009
   33.5193250000000        -1.149131911170888E-009
   33.6323750000000        -1.155479249529757E-009
   33.7454250000000        -1.162006337280109E-009
   33.8584750000000        -1.168705727936314E-009
   33.9715250000000        -1.175567811843311E-009
   34.0845750000000        -1.182581373442931E-009
   34.1976250000000        -1.189733694963328E-009
   34.3106750000000        -1.197010953108539E-009
   34.4237250000000        -1.204398744042285E-009
   34.5367750000000        -1.211882252905522E-009
   34.6498250000000        -1.219446762158895E-009
   34.7628750000000        -1.227078161316739E-009
   34.8759250000000        -1.234763076807765E-009
   34.9889750000000        -1.242489340422031E-009
   35.1020250000000        -1.250246009622461E-009
   35.2150750000000        -1.258023379367088E-009
   35.3281250000000        -1.265813354245573E-009
   35.4411750000000        -1.273609137690752E-009
   35.5542250000000        -1.281405094051161E-009
   35.6672750000000        -1.289196778941166E-009
   35.7803250000000        -1.296980812123636E-009
   35.8933750000000        -1.304754275187289E-009
   36.0064250000000        -1.312514842371454E-009
   36.1194750000000        -1.320260712030954E-009
   36.2325250000000        -1.327990197302060E-009
   36.3455750000000        -1.335701730480558E-009
   36.4586250000000        -1.343393993236919E-009
   36.5716750000000        -1.351066053596025E-009
   36.6847250000000        -1.358717461586606E-009
   36.7977750000000        -1.366348207198690E-009
   36.9108250000000        -1.373958950827008E-009
   37.0238750000000        -1.381551723099051E-009
   37.1369250000000        -1.389130265141568E-009
   37.2499750000000        -1.396700016450126E-009
   37.3630250000000        -1.404268494484734E-009
   37.4760750000000        -1.411845612932642E-009
   37.5891250000000        -1.419443993211421E-009
   37.7021750000000        -1.427079085135975E-009
   37.8152250000000        -1.434768863048145E-009
   37.9282750000000        -1.442533866722019E-009
   38.0413250000000        -1.450397274535972E-009
   38.1543750000000        -1.458384299153210E-009
   38.2674250000000        -1.466521598604371E-009
   38.3804750000000        -1.474836902544811E-009
   38.4935250000000        -1.483358243734830E-009
   38.6065750000000        -1.492113338653592E-009
   38.7196250000000        -1.501128711011713E-009
   38.8326750000000        -1.510428730611202E-009
   38.9457250000000        -1.520034893925968E-009
   39.0587750000000        -1.529965085882208E-009
   39.1718250000000        -1.540232641403307E-009
   39.2848750000000        -1.550845771240426E-009
   39.3979250000000        -1.561807097877953E-009
   39.5109750000000        -1.573113044990498E-009
   39.6240250000000        -1.584753588991177E-009
   39.7370750000000        -1.596712227916392E-009
   39.8501250000000        -1.608965989397900E-009
   39.9631750000000        -1.621485621777872E-009
   40.0762250000000        -1.634236079097845E-009
   40.1892750000000        -1.647177062125116E-009
   40.3023250000000        -1.660263609419525E-009
   40.4153750000000        -1.673447158531260E-009
   40.5284250000000        -1.686676368454775E-009
   40.6414750000000        -1.699898071671550E-009
   40.7545250000000        -1.713058498860814E-009
   40.8675750000000        -1.726104539143858E-009
   40.9806250000000        -1.738984690100288E-009
   41.0936750000000        -1.751650150825792E-009
   41.2067250000000        -1.764056080404566E-009
   41.3197750000000        -1.776162271062592E-009
   41.4328250000000        -1.787934219602017E-009
   41.5458750000000        -1.799343736294219E-009
   41.6589250000000        -1.810369341625610E-009
   41.7719750000000        -1.820996807896953E-009
   41.8850250000000        -1.831219301956547E-009
   41.9980750000000        -1.841037210775883E-009
   42.1111250000000        -1.850458176291158E-009
   42.2241750000000        -1.859496857137618E-009
   42.3372250000000        -1.868174235026027E-009
   42.4502750000000        -1.876516953591566E-009
   42.5633250000000        -1.884556479906883E-009
   42.6763750000000        -1.892328366460587E-009
   42.7894250000000        -1.899871710284259E-009
   42.9024750000000        -1.907227655349145E-009
   43.0155250000000        -1.914438231232474E-009
   43.1285750000000        -1.921546029558849E-009
   43.2416250000000        -1.928593214076656E-009
   43.3546750000000        -1.935620481416441E-009
   43.4677250000000        -1.942666477337783E-009
   43.5807750000000        -1.949766999821114E-009
   43.6938250000000        -1.956954667159608E-009
   43.8068750000000        -1.964258791960365E-009
   43.9199250000000        -1.971704964034274E-009
   44.0329750000000        -1.979314713740752E-009
   44.1460250000000        -1.987105487065355E-009
   44.2590750000000        -1.995091048752477E-009
   44.3721250000000        -2.003282236050296E-009
   44.4851750000000        -2.011686094867801E-009
   44.5982250000000        -2.020306098986031E-009
   44.7112750000000        -2.029143704055492E-009
   44.8243250000000        -2.038197781862917E-009
   44.9373750000000        -2.047464762884693E-009
   45.0504250000000        -2.056939162572936E-009
   45.1634750000000        -2.066613723672374E-009
   45.2765250000000        -2.076479634112233E-009
   45.3895750000000        -2.086526561613457E-009
   45.5026250000000        -2.096742491705993E-009
   45.6156750000000        -2.107113819032238E-009
   45.7287250000000        -2.117625461836277E-009
   45.8417750000000        -2.128260582908875E-009
   45.9548250000000        -2.139000556276274E-009
   46.0678750000000        -2.149825133587361E-009
   46.1809250000000        -2.160712666048714E-009
   46.2939750000000        -2.171639660942901E-009
   46.4070250000000        -2.182580664012331E-009
   46.5200750000000        -2.193509571641596E-009
   46.6331250000000        -2.204399436831340E-009
   46.7461750000000        -2.215222448176827E-009
   46.8592250000000        -2.225951179291605E-009
   46.9722750000000        -2.236559012601253E-009
   47.0853250000000        -2.247020499687444E-009
   47.1983750000000        -2.257312456958024E-009
   47.3114250000000        -2.267414630503114E-009
   47.4244750000000        -2.277310382610397E-009
   47.5375250000000        -2.286987376743869E-009
   47.6505750000000        -2.296438137685191E-009
   47.7636250000000        -2.305660652560252E-009
   47.8766750000000        -2.314658596324434E-009
   47.9897250000000        -2.323441710789676E-009
   48.1027750000000        -2.332026232616765E-009
   48.2158250000000        -2.340434134614248E-009
   48.3288750000000        -2.348692968069032E-009
   48.4419250000000        -2.356835705528188E-009
   48.5549750000000        -2.364899645454096E-009
   48.6680250000000        -2.372925751797513E-009
   48.7810750000000        -2.380957603157220E-009
   48.8941250000000        -2.389040583431507E-009
   49.0071750000000        -2.397220585735740E-009
   49.1202250000000        -2.405542652102118E-009
   49.2332750000000        -2.414050216840103E-009
   49.3463250000000        -2.422783888290739E-009
   49.4593750000000        -2.431780391381651E-009
   49.5724250000000        -2.441071949026666E-009
   49.6854750000000        -2.450685331460551E-009
   49.7985250000000        -2.460641337668034E-009
   49.9115750000000        -2.470954826568068E-009
   50.0246250000000        -2.481634432876534E-009
   50.1376750000000        -2.492682626331636E-009
   50.2507250000000        -2.504096251589274E-009
   50.3637750000000        -2.515866791123890E-009
   50.4768250000000        -2.527981054931059E-009
   50.5898750000000        -2.540422304275427E-009
   50.7029250000000        -2.553170686041682E-009
   50.8159750000000        -2.566204501862192E-009
   50.9290250000000        -2.579501292671823E-009
   51.0420750000000        -2.593038360679668E-009
   51.1551250000000        -2.606793887183226E-009
   51.2681750000000        -2.620747868556724E-009
   51.3812250000000        -2.634882591826592E-009
   51.4942750000000        -2.649183203728566E-009
   51.6073250000000        -2.663638166042020E-009
   51.7203750000000        -2.678239453464063E-009
   51.8334250000000        -2.692982239470890E-009
   51.9464750000000        -2.707864767332064E-009
   52.0595250000000        -2.722888255036800E-009
   52.1725750000000        -2.738056250421200E-009
   52.2856250000000        -2.753373929989644E-009
   52.3986750000000        -2.768847280800162E-009
   52.5117250000000        -2.784482516188018E-009
   52.6247750000000        -2.800285291114091E-009
   52.7378250000000        -2.816259622869288E-009
   52.8508750000000        -2.832407228512544E-009
   52.9639250000000        -2.848727173461750E-009
   53.0769750000000        -2.865215140518600E-009
   53.1900250000000        -2.881862937518258E-009
   53.3030750000000        -2.898658274409622E-009
   53.4161250000000        -2.915585128513072E-009
   53.5291750000000        -2.932623417684549E-009
   53.6422250000000        -2.949749472264176E-009
   53.7552750000000        -2.966936846363315E-009
   53.8683250000000        -2.984156524590547E-009
   53.9813750000000        -3.001378069602771E-009
   54.0944250000000        -3.018570188022169E-009
   54.2074750000000        -3.035701664365359E-009
   54.3205250000000        -3.052742962913198E-009
   54.4335750000000        -3.069666369926069E-009
   54.5466250000000        -3.086447026014419E-009
   54.6596750000000        -3.103064435480417E-009
   54.7727250000000        -3.119502482061056E-009
   54.8857750000000        -3.135750008217734E-009
   54.9988250000000        -3.151801363683723E-009
   55.1118750000000        -3.167656425876001E-009
   55.2249250000000        -3.183320503196943E-009
   55.3379750000000        -3.198804101612013E-009
   55.4510250000000        -3.214122605199760E-009
   55.5640750000000        -3.229295620993268E-009
   55.6771250000000        -3.244346322657123E-009
   55.7901750000000        -3.259300138193179E-009
   55.9032250000000        -3.274183948353563E-009
   56.0162750000000        -3.289025515285952E-009
   56.1293250000000        -3.303852350180849E-009
   56.2423750000000        -3.318691007733229E-009
   56.3554250000000        -3.333566084463416E-009
   56.4684750000000        -3.348499283089599E-009
   56.5815250000000        -3.363509272712095E-009
   56.6945750000000        -3.378611420964036E-009
   56.8076250000000        -3.393817403516543E-009
   56.9206750000000        -3.409135313597754E-009
   57.0337250000000        -3.424569672633643E-009
   57.1467750000000        -3.440122121809182E-009
   57.2598250000000        -3.455792005744369E-009
   57.3728750000000        -3.471576479776769E-009
   57.4859250000000        -3.487471440254880E-009
   57.5989750000000        -3.503472233446481E-009
   57.7120250000000        -3.519574233831039E-009
   57.8250750000000        -3.535773470621761E-009
   57.9381250000000        -3.552066873572878E-009
   58.0511750000000        -3.568452833649805E-009
   58.1642250000000        -3.584931297966419E-009
   58.2772750000000        -3.601503711877106E-009
   58.3903250000000        -3.618172734581236E-009
   58.5033750000000        -3.634942106321346E-009
   58.6164250000000        -3.651816131813109E-009
   58.7294750000000        -3.668798831463924E-009
   58.8425250000000        -3.685893432465900E-009
   58.9555750000000        -3.703101514886000E-009
   59.0686250000000        -3.720422399586115E-009
   59.1816750000000        -3.737852329469845E-009
   59.2947250000000        -3.755384029709748E-009
   59.4077750000000        -3.773006362288864E-009
   59.5208250000000        -3.790704047363560E-009
   59.6338750000000        -3.808457759224875E-009
   59.7469250000000        -3.826244386719200E-009
   59.8599750000000        -3.844037516328656E-009
   59.9730250000000        -3.861808005417323E-009
   60.0860750000000        -3.879525199219463E-009
   60.1991250000000        -3.897158130015383E-009
   60.3121750000000        -3.914676500357094E-009
   60.4252250000000        -3.932051898361818E-009
   60.5382750000000        -3.949259283746422E-009
   60.6513250000000        -3.966278140953480E-009
   60.7643750000000        -3.983093102937657E-009
   60.8774250000000        -3.999695239958274E-009
   60.9904750000000        -4.016082383387721E-009
   61.1035250000000        -4.032259066740182E-009
   61.2165750000000        -4.048236428589495E-009
   61.3296250000000        -4.064031763062179E-009
   61.4426750000000        -4.079667973525702E-009
   61.5557250000000        -4.095171503405580E-009
   61.6687750000000        -4.110571340963596E-009
   61.7818250000000        -4.125897331544255E-009
   61.8948750000000        -4.141178325113775E-009
   62.0079250000000        -4.156441011923216E-009
   62.1209750000000        -4.171707742124163E-009
   62.2340250000000        -4.186995198447964E-009
   62.3470750000000        -4.202313535817360E-009
   62.4601250000000        -4.217665715195161E-009
   62.5731750000000        -4.233047707705800E-009
   62.6862250000000        -4.248449193362480E-009
   62.7992750000000        -4.263854647642656E-009
   62.9123250000000        -4.279245470487367E-009
   63.0253750000000        -4.294602446721165E-009
   63.1384250000000        -4.309908914878145E-009
   63.2514750000000        -4.325154065563775E-009
   63.3645250000000        -4.340336874094517E-009
   63.4775750000000        -4.355470134174159E-009
   63.5906250000000        -4.370583835766062E-009
   63.7036750000000        -4.385728461235266E-009
   63.8167250000000        -4.400977838526853E-009
   63.9297750000000        -4.416430834360981E-009
   64.0428250000000        -4.432211495948884E-009
   64.1558750000000        -4.448468662663684E-009
   64.2689250000000        -4.465373715610434E-009
   64.3819750000000        -4.483116109863320E-009
   64.4950250000000        -4.501897909908536E-009
   64.6080750000000        -4.521926572358022E-009
   64.7211250000000        -4.543405608067789E-009
   64.8341750000000        -4.566524236363876E-009
   64.9472250000000        -4.591445913857361E-009
   65.0602750000000        -4.618295900697802E-009
   65.1733250000000        -4.647148923706504E-009
   65.2863750000000        -4.678016967858452E-009
   65.3994250000000        -4.710838087820400E-009
   65.5124750000000        -4.745466620601188E-009