 -0.847875000000000         1.391355633518269E-024
 -0.734825000000000         9.326822970759916E-019
 -0.621775000000000         6.866977482058667E-018
 -0.508725000000000         3.429373180265453E-017
 -0.395675000000000         1.379019933947212E-016
 -0.282625000000000         4.656750284834339E-016
 -0.169575000000000         1.356156378362321E-015
 -5.652500000000005E-002    3.461504643631239E-015
  5.652499999999994E-002    7.889651157468190E-015
  0.169575000000000         1.621477825655481E-014
  0.282625000000000         3.074300144498209E-014
  0.395675000000000         5.435248462847352E-014
  0.508725000000000         9.065318893771865E-014
  0.621775000000000         1.439508527594266E-013
  0.734825000000000         2.193112454489153E-013
  0.847875000000000         3.229810502374513E-013
  0.960925000000000         4.594928037119335E-013
   1.07397500000000         6.354643656847351E-013
   1.18702500000000         8.571191102380386E-013
   1.30007500000000         1.129894507384398E-012
   1.41312500000000         1.459047009813455E-012
   1.52617500000000         1.848411362698034E-012
   1.63922500000000         2.299877064665922E-012
   1.75227500000000         2.815902522567656E-012
   1.86532500000000         3.394212937862542E-012
   1.97837500000000         4.036590185106750E-012
   2.09142500000000         4.736020912928652E-012
   2.20447500000000         5.489517024243140E-012
   2.31752500000000         6.285949574862927E-012
   2.43057500000000         7.119273847104024E-012
   2.54362500000000         7.972748806909530E-012
   2.65667500000000         8.840443725747142E-012
   2.76972500000000         9.704406483971311E-012
   2.88277500000000         1.055300332145515E-011
   2.99582500000000         1.136566274911625E-011
   3.10887500000000         1.213798021633954E-011
   3.22192500000000         1.284489723258622E-011
   3.33497500000000         1.348106343622987E-011
   3.44802500000000         1.402872337191652E-011
   3.56107500000000         1.447977784425876E-011
   3.67412500000000         1.482335051306785E-011
   3.78717500000000         1.505786940270104E-011
   3.90022500000000         1.517308188016671E-011
   4.01327500000000         1.517056192190668E-011
   4.12632500000000         1.504978658398203E-011
   4.23937500000000         1.481114770655565E-011
   4.35242500000000         1.446718246003351E-011
   4.46547500000000         1.401420426277666E-011
   4.57852500000000         1.346112984457920E-011
   4.69157500000000         1.281789009895493E-011
   4.80462500000000         1.208839813777597E-011
   4.91767500000000         1.128153201389114E-011
   5.03072500000000         1.040346229817848E-011
   5.14377500000000         9.463406594013254E-012
   5.25682500000000         8.462015829997053E-012
   5.36987500000000         7.398193940292154E-012
   5.48292500000000         6.284460275175679E-012
   5.59597500000000         5.113611093014983E-012
   5.70902500000000         3.892246744100291E-012
   5.82207500000000         2.614964274039076E-012
   5.93512500000000         1.277095271648528E-012
   6.04817500000000        -1.152710287359079E-013
   6.16122500000000        -1.556065761011914E-012
   6.27427500000000        -3.049190042367408E-012
   6.38732500000000        -4.579952946324470E-012
   6.50037500000000        -6.145886222679376E-012
   6.61342500000000        -7.722929907549036E-012
   6.72647500000000        -9.304802080511220E-012
   6.83952500000000        -1.085229621923442E-011
   6.95257500000000        -1.236883371780063E-011
   7.06562500000000        -1.379895984880943E-011
   7.17867500000000        -1.511568295696016E-011
   7.29172500000000        -1.629191067822234E-011
   7.40477500000000        -1.729028111190589E-011
   7.51782500000000        -1.807751512067097E-011
   7.63087500000000        -1.862103450511766E-011
   7.74392500000000        -1.890084062558160E-011
   7.85697500000000        -1.888273703888131E-011
   7.97002500000000        -1.854724075567361E-011
   8.08307500000000        -1.789509317490976E-011
   8.19612500000000        -1.692146362687353E-011
   8.30917500000000        -1.563404315248996E-011
   8.42222500000000        -1.404668800500409E-011
   8.53527500000000        -1.218802401884946E-011
   8.64832500000000        -1.009217541122652E-011
   8.76137500000000        -7.807872083969511E-012
   8.87442500000000        -5.381067950837959E-012
   8.98747500000000        -2.862831965092271E-012
   9.10052500000000        -3.205351316887599E-013
   9.21357500000000         2.191320586113600E-012
   9.32662500000000         4.612368587201582E-012
   9.43967500000000         6.890664211126459E-012
   9.55272500000000         8.974005303907127E-012
   9.66577500000000         1.081641359040063E-011
   9.77882500000000         1.238739918680489E-011
   9.89187500000000         1.366937223697854E-011
   10.0049250000000         1.463845870562578E-011
   10.1179750000000         1.529910992679481E-011
   10.2310250000000         1.566439203908840E-011
   10.3440750000000         1.575354717381720E-011
   10.4571250000000         1.560081235249741E-011
   10.5701750000000         1.524452509701817E-011
   10.6832250000000         1.472554993277866E-011
   10.7962750000000         1.409726019012102E-011
   10.9093250000000         1.341166379989120E-011
   11.0223750000000         1.271856900529799E-011
   11.1354250000000         1.206341261693025E-011
   11.2484750000000         1.148605079691652E-011
   11.3615250000000         1.102328139563913E-011
   11.4745750000000         1.070197219881749E-011
   11.5876250000000         1.053424486752695E-011
   11.7006750000000         1.052802745218253E-011
   11.8137250000000         1.067825187247203E-011
   11.9267750000000         1.097104763820020E-011
   12.0398250000000         1.138389440815625E-011
   12.1528750000000         1.188601847436472E-011
   12.2659250000000         1.244722676901346E-011
   12.3789750000000         1.303368291673631E-011
   12.4920250000000         1.360717899450286E-011
   12.6050750000000         1.413704052467248E-011
   12.7181250000000         1.459115343934367E-011
   12.8311750000000         1.495839540478882E-011
   12.9442250000000         1.520989288833195E-011
   13.0572750000000         1.535606346288433E-011
   13.1703250000000         1.539746266553078E-011
   13.2833750000000         1.534942864812705E-011
   13.3964250000000         1.524018140926230E-011
   13.5094750000000         1.510366883568848E-011
   13.6225250000000         1.498124872688102E-011
   13.7355750000000         1.491367913912343E-011
   13.8486250000000         1.495231692944724E-011
   13.9616750000000         1.513142367235147E-011
   14.0747250000000         1.551496280022186E-011
   14.1877750000000         1.612019820747496E-011
   14.3008250000000         1.699031892568561E-011
   14.4138750000000         1.813568705413138E-011
   14.5269250000000         1.955786279167157E-011
   14.6399750000000         2.125959786947487E-011
   14.7530250000000         2.322186060816751E-011
   14.8660750000000         2.540881781074343E-011
   14.9791250000000         2.777848665533171E-011
   15.0921750000000         3.028393747115471E-011
   15.2052250000000         3.285677522254974E-011
   15.3182750000000         3.542988629519023E-011
   15.4313250000000         3.794293361168195E-011
   15.5443750000000         4.033035469531854E-011
   15.6574250000000         4.251634561537820E-011
   15.7704750000000         4.446060069722827E-011
   15.8835250000000         4.610174312163965E-011
   15.9965750000000         4.740836612035996E-011
   16.1096250000000         4.835876437653613E-011
   16.2226750000000         4.894400514269534E-011
   16.3357250000000         4.916808176343385E-011
   16.4487750000000         4.904886243801918E-011
   16.5618250000000         4.861950826510916E-011
   16.6748750000000         4.792621872181611E-011
   16.7879250000000         4.701673637004312E-011
   16.9009750000000         4.594606762691519E-011
   17.0140250000000         4.478641355035041E-011
   17.1270750000000         4.359078448445547E-011
   17.2401250000000         4.241859932467578E-011
   17.3531750000000         4.134036748060811E-011
   17.4662250000000         4.038260531816008E-011
   17.5792750000000         3.959117089941354E-011
   17.6923250000000         3.899414549838298E-011
   17.8053750000000         3.859564961356329E-011
   17.9184250000000         3.840210920158829E-011
   18.0314750000000         3.840024498329660E-011
   18.1445250000000         3.855587459921091E-011
   18.2575750000000         3.883658214058156E-011
   18.3706250000000         3.920315679848796E-011
   18.4836750000000         3.960084770734450E-011
   18.5967250000000         3.997489127540387E-011
   18.7097750000000         4.026785700282810E-011
   18.8228250000000         4.043274737188949E-011
   18.9358750000000         4.041143951359006E-011
   19.0489250000000         4.017031679306658E-011
   19.1619750000000         3.966712739763802E-011
   19.2750250000000         3.889061971985818E-011
   19.3880750000000         3.782294122061175E-011
   19.5011250000000         3.646810680517051E-011
   19.6141750000000         3.483711678699929E-011
   19.7272250000000         3.296110608642691E-011
   19.8402750000000         3.087419461590063E-011
   19.9533250000000         2.862698127865877E-011
   20.0663750000000         2.626730902974497E-011
   20.1794250000000         2.386419590825549E-011
   20.2924750000000         2.147139615019818E-011
   20.4055250000000         1.916695209530606E-011
   20.5185750000000         1.700374769148310E-011
   20.6316250000000         1.504976910897010E-011
   20.7446750000000         1.336152140921706E-011
   20.8577250000000         1.197964257509315E-011
   20.9707750000000         1.095336679142161E-011
   21.0838250000000         1.031391561553785E-011
   21.1968750000000         1.007779007168433E-011
   21.3099250000000         1.026149873095646E-011
   21.4229750000000         1.086446964084172E-011
   21.5360250000000         1.187261220349724E-011
   21.6490750000000         1.327366243275387E-011
   21.7621250000000         1.503479087110835E-011
   21.8751750000000         1.712895676750520E-011
   21.9882250000000         1.950522545392046E-011
   22.1012750000000         2.212844894634413E-011
   22.2143250000000         2.494336358968288E-011
   22.3273750000000         2.789980508602033E-011
   22.4404250000000         3.094468156355834E-011
   22.5534750000000         3.402786710450375E-011
   22.6665250000000         3.709866272098155E-011
   22.7795750000000         4.010725589074998E-011
   22.8926250000000         4.301274785689289E-011
   23.0056750000000         4.577187122361829E-011
   23.1187250000000         4.835321366193623E-011
   23.2317750000000         5.071779371663042E-011
   23.3448250000000         5.285101261394117E-011
   23.4578750000000         5.472847262015660E-011
   23.5709250000000         5.633643858780030E-011
   23.6839750000000         5.766772221735092E-011
   23.7970250000000         5.871668395438863E-011
   23.9100750000000         5.948420462771041E-011
   24.0231250000000         5.997894934666832E-011
   24.1361750000000         6.021925063517414E-011
   24.2492250000000         6.020373803281394E-011
   24.3622750000000         5.996069131254235E-011
   24.4753250000000         5.949680135336010E-011
   24.5883750000000         5.884126534918286E-011
   24.7014250000000         5.801928238569239E-011
   24.8144750000000         5.704466349395999E-011
   24.9275250000000         5.594447454027299E-011
   25.0405750000000         5.474209327414754E-011
   25.1536250000000         5.345783347711390E-011
   25.2666750000000         5.211486199259005E-011
   25.3797250000000         5.073809323493272E-011
   25.4927750000000         4.933759101600016E-011
   25.6058250000000         4.794686168025289E-011
   25.7188750000000         4.658246799368603E-011
   25.8319250000000         4.526029800463032E-011
   25.9449750000000         4.399996989757983E-011
   26.0580250000000         4.282904083774773E-011
   26.1710750000000         4.176862321560744E-011
   26.2841250000000         4.084433236645046E-011
   26.3971750000000         4.006858272427420E-011
   26.5102250000000         3.948429278079629E-011
   26.6232750000000         3.910478171470305E-011
   26.7363250000000         3.896358115808552E-011
   26.8493750000000         3.908926975717090E-011
   26.9624250000000         3.950108592362250E-011
   27.0754750000000         4.023385890546343E-011
   27.1885250000000         4.129860727883569E-011
   27.3015750000000         4.272607584500887E-011
   27.4146250000000         4.452478600650429E-011
   27.5276750000000         4.670215014991562E-011
   27.6407250000000         4.926026244304940E-011
   27.7537750000000         5.219478061170105E-011
   27.8668250000000         5.549215261017061E-011
   27.9798750000000         5.913217892155035E-011
   28.0929250000000         6.307606391550282E-011
   28.2059750000000         6.728912389839965E-011
   28.3190250000000         7.171358126577583E-011
   28.4320750000000         7.631049619685400E-011
   28.5451250000000         8.099913442548888E-011
   28.6581750000000         8.573116880773490E-011
   28.7712250000000         9.042387791092253E-011
   28.8842750000000         9.501815603415623E-011
   28.9973250000000         9.942489963436150E-011
   29.1103750000000         1.035963046787805E-010
   29.2234250000000         1.074606829242101E-010
   29.3364750000000         1.109714409935602E-010
   29.4495250000000         1.140743618363378E-010
   29.5625750000000         1.167371196351006E-010
   29.6756250000000         1.189313536761209E-010
   29.7886750000000         1.206430363433028E-010
   29.9017250000000         1.218754638122196E-010
   30.0147750000000         1.226281215202999E-010
   30.1278250000000         1.229205259955567E-010
   30.2408750000000         1.227897129260400E-010
   30.3539250000000         1.222659911246908E-010
   30.4669750000000         1.213979749895505E-010
   30.5800250000000         1.202312629489007E-010
   30.6930750000000         1.188143046577938E-010
   30.8061250000000         1.171968886812117E-010
   30.9191750000000         1.154393936828110E-010
   31.0322250000000         1.135871406460459E-010
   31.1452750000000         1.116801487409382E-010
   31.2583250000000         1.097602907774834E-010
   31.3713750000000         1.078585966387709E-010
   31.4844250000000         1.060073645734907E-010
   31.5974750000000         1.042165532493677E-010
   31.7105250000000         1.025072439047118E-010
   31.8235750000000         1.008829041746298E-010
   31.9366250000000         9.934872042365457E-011
   32.0496750000000         9.790143103779647E-011
   32.1627250000000         9.653845049374543E-011
   32.2757750000000         9.525170914123435E-011
   32.3888250000000         9.403637219585028E-011
   32.5018750000000         9.288908067309496E-011
   32.6149250000000         9.180287862868320E-011
   32.7279750000000         9.078572912711955E-011
   32.8410250000000         8.983164729823460E-011
   32.9540750000000         8.895374917073212E-011
   33.0671250000000         8.815471737768253E-011
   33.1801750000000         8.744843772729128E-011
   33.2932250000000         8.685737314223157E-011
   33.4062750000000         8.639460667732865E-011
   33.5193250000000         8.606776851263842E-011
   33.6323750000000         8.590578843479214E-011
   33.7454250000000         8.591492369058380E-011
   33.8584750000000         8.611291403239878E-011
   33.9715250000000         8.650237985115592E-011
   34.0845750000000         8.708955387382491E-011
   34.1976250000000         8.787796594381571E-011
   34.3106750000000         8.885478286534655E-011
   34.4237250000000         9.000533230216942E-011
   34.5367750000000         9.132357409323126E-011
   34.6498250000000         9.277948718120097E-011
   34.7628750000000         9.434887103792819E-011
   34.8759250000000         9.601095081874928E-011
   34.9889750000000         9.772366133874579E-011
   35.1020250000000         9.946525394758199E-011
   35.2150750000000         1.012044108139670E-010
   35.3281250000000         1.029089373129620E-010
   35.4411750000000         1.045603521004543E-010
   35.5542250000000         1.061382546646990E-010
   35.6672750000000         1.076197653494386E-010
   35.7803250000000         1.089987076848724E-010
   35.8933750000000         1.102729385562986E-010
   36.0064250000000         1.114415882743181E-010
   36.1194750000000         1.125078233338017E-010
   36.2325250000000         1.134878381195413E-010
   36.3455750000000         1.143952909928770E-010
   36.4586250000000         1.152476326491572E-010
   36.5716750000000         1.160630016599518E-010
   36.6847250000000         1.168590092050497E-010
   36.7977750000000         1.176667262602929E-010
   36.9108250000000         1.184964108747471E-010
   37.0238750000000         1.193654186490165E-010
   37.1369250000000         1.202803893740823E-010
   37.2499750000000         1.212558380153040E-010
   37.3630250000000         1.222871381624715E-010
   37.4760750000000         1.233765120363731E-010
   37.5891250000000         1.245068339097678E-010
   37.7021750000000         1.256735620151325E-010
   37.8152250000000         1.268513010978264E-010
   37.9282750000000         1.280203446633130E-010
   38.0413250000000         1.291544635503780E-010
   38.1543750000000         1.302280373998980E-010
   38.2674250000000         1.312146015850969E-010
   38.3804750000000         1.320876059533122E-010
   38.4935250000000         1.328273340054395E-010
   38.6065750000000         1.334074352226163E-010
   38.7196250000000         1.338188330331687E-010
   38.8326750000000         1.340501803822401E-010
   38.9457250000000         1.341004273229062E-010
   39.0587750000000         1.339732334652657E-010
   39.1718250000000         1.336822106735651E-010
   39.2848750000000         1.332438771462866E-010
   39.3979250000000         1.326871420943578E-010
   39.5109750000000         1.320464058796262E-010
   39.6240250000000         1.313567168290155E-010
   39.7370750000000         1.306627734982923E-010
   39.8501250000000         1.300083665947627E-010
   39.9631750000000         1.294419438512849E-010
   40.0762250000000         1.290082744594849E-010
   40.1892750000000         1.287551210424190E-010
   40.3023250000000         1.287220630049557E-010
   40.4153750000000         1.289404948841550E-010
   40.5284250000000         1.294486983209257E-010
   40.6414750000000         1.302675151391998E-010
   40.7545250000000         1.314092570377885E-010
   40.8675750000000         1.328786947653143E-010
   40.9806250000000         1.346737446546356E-010
   41.0936750000000         1.367791802297895E-010
   41.2067250000000         1.391716131261476E-010
   41.3197750000000         1.418193581244615E-010
   41.4328250000000         1.446814809883457E-010
   41.5458750000000         1.477181570188374E-010
   41.6589250000000         1.508780725400346E-010
   41.7719750000000         1.541086472049837E-010
   41.8850250000000         1.573572882491622E-010
   41.9980750000000         1.605770818469227E-010
   42.1111250000000         1.637075952137740E-010
   42.2241750000000         1.667109687034734E-010
   42.3372250000000         1.695462193678256E-010
   42.4502750000000         1.721808249025317E-010
   42.5633250000000         1.745950727356584E-010
   42.6763750000000         1.767653432931810E-010
   42.7894250000000         1.786859675018023E-010
   42.9024750000000         1.803647207449135E-010
   43.0155250000000         1.818158586078525E-010
   43.1285750000000         1.830460721066554E-010
   43.2416250000000         1.840839267089157E-010
   43.3546750000000         1.849570721303312E-010
   43.4677250000000         1.856991786930333E-010
   43.5807750000000         1.863450921724828E-010
   43.6938250000000         1.869225934868470E-010
   43.8068750000000         1.874618262390100E-010
   43.9199250000000         1.879872911521223E-010
   44.0329750000000         1.885275066000248E-010
   44.1460250000000         1.890932780952599E-010
   44.2590750000000         1.896974098683215E-010
   44.3721250000000         1.903220057392877E-010
   44.4851750000000         1.909896796907517E-010
   44.5982250000000         1.916702329122693E-010
   44.7112750000000         1.923452493969682E-010
   44.8243250000000         1.929922053226318E-010
   44.9373750000000         1.935915679436006E-010
   45.0504250000000         1.941093595133388E-010
   45.1634750000000         1.945268724790741E-010
   45.2765250000000         1.948071405968342E-010
   45.3895750000000         1.949409145332903E-010
   45.5026250000000         1.949103564418740E-010
   45.6156750000000         1.947051624008357E-010
   45.7287250000000         1.943268917807334E-010
   45.8417750000000         1.937864569130184E-010
   45.9548250000000         1.930963974976513E-010
   46.0678750000000         1.922883004162598E-010
   46.1809250000000         1.913889622418440E-010
   46.2939750000000         1.904424754019740E-010
   46.4070250000000         1.894929639658834E-010
   46.5200750000000         1.885854248834668E-010
   46.6331250000000         1.877705089267893E-010
   46.7461750000000         1.870952538096565E-010
   46.8592250000000         1.866052922618700E-010
   46.9722750000000         1.863359397501634E-010
   47.0853250000000         1.863206883498423E-010
   47.1983750000000         1.865820764531667E-010
   47.3114250000000         1.871371776625824E-010
   47.4244750000000         1.879787405568301E-010
   47.5375250000000         1.891101028741018E-010
   47.6505750000000         1.905040214354359E-010
   47.7636250000000         1.921370548441475E-010
   47.8766750000000         1.939728134951728E-010
   47.9897250000000         1.959656199461907E-010
   48.1027750000000         1.980614438017264E-010
   48.2158250000000         2.002207621780070E-010
   48.3288750000000         2.023818251140493E-010
   48.4419250000000         2.044973359837553E-010
   48.5549750000000         2.065230498540788E-010
   48.6680250000000         2.084218072804602E-010
   48.7810750000000         2.101550219970991E-010
   48.8941250000000         2.117104088744787E-010
   49.0071750000000         2.130649483439221E-010
   49.1202250000000         2.142308724434243E-010
   49.2332750000000         2.152006762625837E-010
   49.3463250000000         2.160063925326245E-010
   49.4593750000000         2.166746357745002E-010
   49.5724250000000         2.172287469627798E-010
   49.6854750000000         2.177213735785695E-010
   49.7985250000000         2.181946178678200E-010
   49.9115750000000         2.186855551393824E-010
   50.0246250000000         2.192465026533638E-010
   50.1376750000000         2.199102916511560E-010
   50.2507250000000         2.207198055449910E-010
   50.3637750000000         2.216943760994952E-010
   50.4768250000000         2.228621112694535E-010
   50.5898750000000         2.242225059194361E-010
   50.7029250000000         2.257860631739354E-010
   50.8159750000000         2.275350384716401E-010
   50.9290250000000         2.294513708758949E-010
   51.0420750000000         2.315036699107412E-010
   51.1551250000000         2.336631726159083E-010
   51.2681750000000         2.358841408064465E-010
   51.3812250000000         2.381200877727106E-010
   51.4942750000000         2.403237857388979E-010
   51.6073250000000         2.424560263268564E-010
   51.7203750000000         2.444622780314181E-010
   51.8334250000000         2.463152776732884E-010
   51.9464750000000         2.479748353788521E-010
   52.0595250000000         2.494202544393536E-010
   52.1725750000000         2.506341576989919E-010
   52.2856250000000         2.516173336532186E-010
   52.3986750000000         2.523669715160201E-010
   52.5117250000000         2.529036323306647E-010
   52.6247750000000         2.532465668221136E-010
   52.7378250000000         2.534342527052951E-010
   52.8508750000000         2.534999376575800E-010
   52.9639250000000         2.534891308300868E-010
   53.0769750000000         2.534448497984844E-010
   53.1900250000000         2.534200528879091E-010
   53.3030750000000         2.534616786188742E-010
   53.4161250000000         2.536020555997341E-010
   53.5291750000000         2.538957872020300E-010
   53.6422250000000         2.543615950514203E-010
   53.7552750000000         2.550284300321674E-010
   53.8683250000000         2.559115681797403E-010
   53.9813750000000         2.570090036953080E-010
   54.0944250000000         2.583309450606794E-010
   54.2074750000000         2.598554098381895E-010
   54.3205250000000         2.615586287252287E-010
   54.4335750000000         2.634240483705737E-010
   54.5466250000000         2.654101201553030E-010
   54.6596750000000         2.674738221255593E-010
   54.7727250000000         2.695827693190036E-010
   54.8857750000000         2.716949127703613E-010
   54.9988250000000         2.737670371243152E-010
   55.1118750000000         2.757627071689007E-010
   55.2249250000000         2.776546245176159E-010
   55.3379750000000         2.794146246269602E-010
   55.4510250000000         2.810311886586328E-010
   55.5640750000000         2.824825713015861E-010
   55.6771250000000         2.837703925503198E-010
   55.7901750000000         2.849095148719979E-010
   55.9032250000000         2.859105298860604E-010
   56.0162750000000         2.867947511544995E-010
   56.1293250000000         2.875860146928356E-010
   56.2423750000000         2.883160045758661E-010
   56.3554250000000         2.890192988689252E-010
   56.4684750000000         2.897326459732435E-010
   56.5815250000000         2.904842519572782E-010
   56.6945750000000         2.913018210092297E-010
   56.8076250000000         2.922182407187322E-010
   56.9206750000000         2.932526341661601E-010
   57.0337250000000         2.944147983012465E-010
   57.1467750000000         2.957077445999834E-010
   57.2598250000000         2.971277500689120E-010
   57.3728750000000         2.986652780580516E-010
   57.4859250000000         3.003035304435135E-010
   57.5989750000000         3.020093485932628E-010
   57.7120250000000         3.037573851038223E-010
   57.8250750000000         3.055068019579290E-010
   57.9381250000000         3.072186312396375E-010
   58.0511750000000         3.088566419683210E-010
   58.1642250000000         3.103796138447208E-010
   58.2772750000000         3.117546911889067E-010
   58.3903250000000         3.129492706124708E-010
   58.5033750000000         3.139389587443687E-010
   58.6164250000000         3.147147490265849E-010
   58.7294750000000         3.152588333586447E-010
   58.8425250000000         3.155805565551571E-010
   58.9555750000000         3.156901062481628E-010
   59.0686250000000         3.156053634653586E-010
   59.1816750000000         3.153546117815474E-010
   59.2947250000000         3.149721701059293E-010
   59.4077750000000         3.145021003974669E-010
   59.5208250000000         3.139847627037107E-010
   59.6338750000000         3.134685027717096E-010
   59.7469250000000         3.129903975471442E-010
   59.8599750000000         3.126043647226549E-010
   59.9730250000000         3.123495710148598E-010
   60.0860750000000         3.122544249903884E-010
   60.1991250000000         3.123517762614828E-010
   60.3121750000000         3.126482884483757E-010
   60.4252250000000         3.131638100304312E-010
   60.5382750000000         3.138948874220207E-010
   60.6513250000000         3.148343428233847E-010
   60.7643750000000         3.159670481690210E-010
   60.8774250000000         3.172644112081274E-010
   60.9904750000000         3.187071963090184E-010
   61.1035250000000         3.202532285547013E-010
   61.2165750000000         3.218751607989848E-010
   61.3296250000000         3.235334515232167E-010
   61.4426750000000         3.251905480964787E-010
   61.5557250000000         3.268285916721300E-010
   61.6687750000000         3.284078509504925E-010
   61.7818250000000         3.299261810614403E-010
   61.8948750000000         3.313544217055858E-010
   62.0079250000000         3.326945285802895E-010
   62.1209750000000         3.339513765229946E-010
   62.2340250000000         3.351324418244382E-010
   62.3470750000000         3.362570985971843E-010
   62.4601250000000         3.373533784987989E-010
   62.5731750000000         3.384435604757579E-010
   62.6862250000000         3.395641972373358E-010
   62.7992750000000         3.407422203690262E-010
   62.9123250000000         3.420179372293751E-010
   63.0253750000000         3.434185727912701E-010
   63.1384250000000         3.449652443407789E-010
   63.2514750000000         3.466963623831436E-010
   63.3645250000000         3.486131216135707E-010
   63.4775750000000         3.507345340388657E-010
   63.5906250000000         3.530601234367845E-010
   63.7036750000000         3.555828665899330E-010
   63.8167250000000         3.582910111162879E-010
   63.9297750000000         3.611620484335108E-010
   64.0428250000000         3.641742310212725E-010
   64.1558750000000         3.672973363692806E-010
   64.2689250000000         3.704856379592683E-010
   64.3819750000000         3.737168760206068E-010
   64.4950250000000         3.769427793944408E-010
   64.6080750000000         3.801217151248661E-010
   64.7211250000000         3.832211899899758E-010
   64.8341750000000         3.862042638707426E-010
   64.9472250000000         3.890415910914527E-010
   65.0602750000000         3.917068484819993E-010
   65.1733250000000         3.941765576081415E-010
   65.2863750000000         3.964355865576390E-010
   65.3994250000000         3.984757255769421E-010
   65.5124750000000         4.002908166901891E-010