 -0.847875000000000         2.838394429365985E-023
 -0.734825000000000         2.745219504232173E-023
 -0.621775000000000         2.586405965251885E-023
 -0.508725000000000         2.344657717424950E-023
 -0.395675000000000         1.769031076478175E-023
 -0.282625000000000        -6.310220143465036E-024
 -0.169575000000000        -1.077473080531457E-022
 -5.652500000000005E-002   -4.754734596649725E-022
  5.652499999999994E-002   -1.689480360678504E-021
  0.169575000000000        -4.735224826570004E-021
  0.282625000000000        -1.286697531930371E-020
  0.395675000000000        -3.188555995319888E-020
  0.508725000000000        -7.234171841274266E-020
  0.621775000000000        -1.529933041635962E-019
  0.734825000000000        -3.044301459840997E-019
  0.847875000000000        -5.734519880792992E-019
  0.960925000000000        -1.013610755543821E-018
   1.07397500000000        -1.716739603349711E-018
   1.18702500000000        -2.813814577752295E-018
   1.30007500000000        -4.473686970125198E-018
   1.41312500000000        -6.912234633253753E-018
   1.52617500000000        -1.037834167782104E-017
   1.63922500000000        -1.518902551112221E-017
   1.75227500000000        -2.174217795318771E-017
   1.86532500000000        -3.048219244072119E-017
   1.97837500000000        -4.195934175844464E-017
   2.09142500000000        -5.676073324341317E-017
   2.20447500000000        -7.557290830382218E-017
   2.31752500000000        -9.911245158201213E-017
   2.43057500000000        -1.282242438625158E-016
   2.54362500000000        -1.637443137311860E-016
   2.65667500000000        -2.066741211504093E-016
   2.76972500000000        -2.579843261272123E-016
   2.88277500000000        -3.186992171751499E-016
   2.99582500000000        -3.898572305780698E-016
   3.10887500000000        -4.726071398394157E-016
   3.22192500000000        -5.679263694295170E-016
   3.33497500000000        -6.768682821785681E-016
   3.44802500000000        -8.003879598428227E-016
   3.56107500000000        -9.393932304392723E-016
   3.67412500000000        -1.094740416904353E-015
   3.78717500000000        -1.267198902709007E-015
   3.90022500000000        -1.457434997506193E-015
   4.01327500000000        -1.666041933069792E-015
   4.12632500000000        -1.893486077012868E-015
   4.23937500000000        -2.140205974320495E-015
   4.35242500000000        -2.406523956581176E-015
   4.46547500000000        -2.692467589374357E-015
   4.57852500000000        -2.998019386860630E-015
   4.69157500000000        -3.323066197114242E-015
   4.80462500000000        -3.667358835025078E-015
   4.91767500000000        -4.030512654237273E-015
   5.03072500000000        -4.412009543627618E-015
   5.14377500000000        -4.811251944571527E-015
   5.25682500000000        -5.227351779178116E-015
   5.36987500000000        -5.659437983205227E-015
   5.48292500000000        -6.106609134254181E-015
   5.59597500000000        -6.567781941746007E-015
   5.70902500000000        -7.041889786905998E-015
   5.82207500000000        -7.527772890639630E-015
   5.93512500000000        -8.024405196153752E-015
   6.04817500000000        -8.530879217750093E-015
   6.16122500000000        -9.046424718751571E-015
   6.27427500000000        -9.570416578926330E-015
   6.38732500000000        -1.010267723584734E-014
   6.50037500000000        -1.064315913424739E-014
   6.61342500000000        -1.119217611957107E-014
   6.72647500000000        -1.175034639455275E-014
   6.83952500000000        -1.231876994879209E-014
   6.95257500000000        -1.289871748685023E-014
   7.06562500000000        -1.349218297411905E-014
   7.17867500000000        -1.410132103099487E-014
   7.29172500000000        -1.472858249411048E-014
   7.40477500000000        -1.537679451873074E-014
   7.51782500000000        -1.604889455953937E-014
   7.63087500000000        -1.674796793547727E-014
   7.74392500000000        -1.747713837544913E-014
   7.85697500000000        -1.823961365013608E-014
   7.97002500000000        -1.903832249792155E-014
   8.08307500000000        -1.987582771488049E-014
   8.19612500000000        -2.075437409946063E-014
   8.30917500000000        -2.167586430258628E-014
   8.42222500000000        -2.264165385377698E-014
   8.53527500000000        -2.365254156060666E-014
   8.64832500000000        -2.470864442253915E-014
   8.76137500000000        -2.580948481210583E-014
   8.87442500000000        -2.695405534616909E-014
   8.98747500000000        -2.814074719437842E-014
   9.10052500000000        -2.936730379486515E-014
   9.21357500000000        -3.063111761050624E-014
   9.32662500000000        -3.192918493306151E-014
   9.43967500000000        -3.325826842348711E-014
   9.55272500000000        -3.461490050085797E-014
   9.66577500000000        -3.599554498071278E-014
   9.77882500000000        -3.739678280344241E-014
   9.89187500000000        -3.881531607605600E-014
   10.0049250000000        -4.024799417933034E-014
   10.1179750000000        -4.169216270006658E-014
   10.2310250000000        -4.314550190592759E-014
   10.3440750000000        -4.460608246573376E-014
   10.4571250000000        -4.607252494984824E-014
   10.5701750000000        -4.754381217346259E-014
   10.6832250000000        -4.901935605076692E-014
   10.7962750000000        -5.049902032271579E-014
   10.9093250000000        -5.198303439809024E-014
   11.0223750000000        -5.347175870735406E-014
   11.1354250000000        -5.496572232192609E-014
   11.2484750000000        -5.646550122020710E-014
   11.3615250000000        -5.797162526999071E-014
   11.4745750000000        -5.948450680646180E-014
   11.5876250000000        -6.100426546870714E-014
   11.7006750000000        -6.253074957150447E-014
   11.8137250000000        -6.406338284156202E-014
   11.9267750000000        -6.560124876926233E-014
   12.0398250000000        -6.714295910176550E-014
   12.1528750000000        -6.868678058392969E-014
   12.2659250000000        -7.023066652795979E-014
   12.3789750000000        -7.177229239185457E-014
   12.4920250000000        -7.330909565329447E-014
   12.6050750000000        -7.483841503906771E-014
   12.7181250000000        -7.635761531442645E-014
   12.8311750000000        -7.786424684760036E-014
   12.9442250000000        -7.935597040941451E-014
   13.0572750000000        -8.083098083819890E-014
   13.1703250000000        -8.228784443191339E-014
   13.2833750000000        -8.372570853106032E-014
   13.3964250000000        -8.514439778786996E-014
   13.5094750000000        -8.654441203828845E-014
   13.6225250000000        -8.792691021338100E-014
   13.7355750000000        -8.929380946762785E-014
   13.8486250000000        -9.064777527394495E-014
   13.9616750000000        -9.199214145204491E-014
   14.0747250000000        -9.333110690818446E-014
   14.1877750000000        -9.466917570459902E-014
   14.3008250000000        -9.601157694516051E-014
   14.4138750000000        -9.736382069790449E-014
   14.5269250000000        -9.873178430283090E-014
   14.6399750000000        -1.001217705390008E-013
   14.7530250000000        -1.015401460236184E-013
   14.8660750000000        -1.029933758663805E-013
   14.9791250000000        -1.044879567416989E-013
   15.0921750000000        -1.060303450212364E-013
   15.2052250000000        -1.076268272921688E-013
   15.3182750000000        -1.092835430878649E-013
   15.4313250000000        -1.110064846096548E-013
   15.5443750000000        -1.128012808329514E-013
   15.6574250000000        -1.146731074276700E-013
   15.7704750000000        -1.166268188515273E-013
   15.8835250000000        -1.186665965799519E-013
   15.9965750000000        -1.207961200527526E-013
   16.1096250000000        -1.230184293466623E-013
   16.2226750000000        -1.253356899169527E-013
   16.3357250000000        -1.277491779462416E-013
   16.4487750000000        -1.302592189365943E-013
   16.5618250000000        -1.328650143536854E-013
   16.6748750000000        -1.355646406966392E-013
   16.7879250000000        -1.383548091099302E-013
   16.9009750000000        -1.412309665741513E-013
   17.0140250000000        -1.441873181932259E-013
   17.1270750000000        -1.472166526260483E-013
   17.2401250000000        -1.503105848940311E-013
   17.3531750000000        -1.534597188375712E-013
   17.4662250000000        -1.566533647516359E-013
   17.5792750000000        -1.598801349607487E-013
   17.6923250000000        -1.631280720976742E-013
   17.8053750000000        -1.663847645414935E-013
   17.9184250000000        -1.696377828245419E-013
   18.0314750000000        -1.728748218121130E-013
   18.1445250000000        -1.760839541025296E-013
   18.2575750000000        -1.792541504666813E-013
   18.3706250000000        -1.823754995303004E-013
   18.4836750000000        -1.854393606987501E-013
   18.5967250000000        -1.884384740094558E-013
   18.7097750000000        -1.913673050786280E-013
   18.8228250000000        -1.942220491079444E-013
   18.9358750000000        -1.970005520618486E-013
   19.0489250000000        -1.997024697224206E-013
   19.1619750000000        -2.023289264132010E-013
   19.2750250000000        -2.048826431044548E-013
   19.3880750000000        -2.073673448627237E-013
   19.5011250000000        -2.097877508144874E-013
   19.6141750000000        -2.121492381567687E-013
   19.7272250000000        -2.144576462074341E-013
   19.8402750000000        -2.167189893911329E-013
   19.9533250000000        -2.189391096181335E-013
   20.0663750000000        -2.211235730987632E-013
   20.1794250000000        -2.232775027355831E-013
   20.2924750000000        -2.254054416560643E-013
   20.4055250000000        -2.275114129128585E-013
   20.5185750000000        -2.295986927221834E-013
   20.6316250000000        -2.316702889079815E-013
   20.7446750000000        -2.337288388551385E-013
   20.8577250000000        -2.357769048204429E-013
   20.9707750000000        -2.378174269957145E-013
   21.0838250000000        -2.398538001841791E-013
   21.1968750000000        -2.418901619473893E-013
   21.3099250000000        -2.439318172891628E-013
   21.4229750000000        -2.459852379395365E-013
   21.5360250000000        -2.480583494564738E-013
   21.6490750000000        -2.501606598636785E-013
   21.7621250000000        -2.523031960462572E-013
   21.8751750000000        -2.544984484881854E-013
   21.9882250000000        -2.567600903502161E-013
   22.1012750000000        -2.591029012949707E-013
   22.2143250000000        -2.615421867742643E-013
   22.3273750000000        -2.640933391363328E-013
   22.4404250000000        -2.667714504152083E-013
   22.5534750000000        -2.695906892141761E-013
   22.6665250000000        -2.725637269742708E-013
   22.7795750000000        -2.757010243914740E-013
   22.8926250000000        -2.790104865312740E-013
   23.0056750000000        -2.824969223330999E-013
   23.1187250000000        -2.861616758724246E-013
   23.2317750000000        -2.900024097513909E-013
   23.3448250000000        -2.940131681979928E-013
   23.4578750000000        -2.981841711555397E-013
   23.5709250000000        -3.025020852325620E-013
   23.6839750000000        -3.069504351159284E-013
   23.7970250000000        -3.115099221154762E-013
   23.9100750000000        -3.161590611887962E-013
   24.0231250000000        -3.208748570612562E-013
   24.1361750000000        -3.256335205388873E-013
   24.2492250000000        -3.304110185254785E-013
   24.3622750000000        -3.351841882184987E-013
   24.4753250000000        -3.399310929681415E-013
   24.5883750000000        -3.446320801201880E-013
   24.7014250000000        -3.492699846000438E-013
   24.8144750000000        -3.538306632707133E-013
   24.9275250000000        -3.583032983663240E-013
   25.0405750000000        -3.626805144570359E-013
   25.1536250000000        -3.669582337401647E-013
   25.2666750000000        -3.711355486016570E-013
   25.3797250000000        -3.752143404830319E-013
   25.4927750000000        -3.791988208263283E-013
   25.6058250000000        -3.830952789186233E-013
   25.7188750000000        -3.869111053703450E-013
   25.8319250000000        -3.906543409716767E-013
   25.9449750000000        -3.943330639500131E-013
   26.0580250000000        -3.979550232776295E-013
   26.1710750000000        -4.015269292429892E-013
   26.2841250000000        -4.050541538261099E-013
   26.3971750000000        -4.085404390277676E-013
   26.5102250000000        -4.119881094206176E-013
   26.6232750000000        -4.153977089624866E-013
   26.7363250000000        -4.187686355583635E-013
   26.8493750000000        -4.220992760647746E-013
   26.9624250000000        -4.253874785072131E-013
   27.0754750000000        -4.286313342396240E-013
   27.1885250000000        -4.318295185893372E-013
   27.3015750000000        -4.349821862261815E-013
   27.4146250000000        -4.380912578229497E-013
   27.5276750000000        -4.411610670355455E-013
   27.6407250000000        -4.441987883893756E-013
   27.7537750000000        -4.472147018302351E-013
   27.8668250000000        -4.502222886668287E-013
   27.9798750000000        -4.532381703792826E-013
   28.0929250000000        -4.562817970487001E-013
   28.2059750000000        -4.593752022594705E-013
   28.3190250000000        -4.625423233822337E-013
   28.4320750000000        -4.658085182038516E-013
   28.5451250000000        -4.691992260333110E-013
   28.6581750000000        -4.727396177126344E-013
   28.7712250000000        -4.764531328282536E-013
   28.8842750000000        -4.803608278961650E-013
   28.9973250000000        -4.844802317536427E-013
   29.1103750000000        -4.888250522599578E-013
   29.2234250000000        -4.934040653906424E-013
   29.3364750000000        -4.982208968358070E-013
   29.4495250000000        -5.032735867989421E-013
   29.5625750000000        -5.085546951844424E-013
   29.6756250000000        -5.140513350752385E-013
   29.7886750000000        -5.197455948639104E-013
   29.9017250000000        -5.256150381275933E-013
   30.0147750000000        -5.316332975086323E-013
   30.1278250000000        -5.377711502318075E-013
   30.2408750000000        -5.439972471490560E-013
   30.3539250000000        -5.502791497986782E-013
   30.4669750000000        -5.565843683590477E-013
   30.5800250000000        -5.628812043531713E-013
   30.6930750000000        -5.691397152877454E-013
   30.8061250000000        -5.753325880983165E-013
   30.9191750000000        -5.814357562760108E-013
   31.0322250000000        -5.874287274601524E-013
   31.1452750000000        -5.932949221871097E-013
   31.2583250000000        -5.990218782186295E-013
   31.3713750000000        -6.046012010766670E-013
   31.4844250000000        -6.100283667651232E-013
   31.5974750000000        -6.153023659140390E-013
   31.7105250000000        -6.204254458845474E-013
   31.8235750000000        -6.254025823476624E-013
   31.9366250000000        -6.302410219757734E-013
   32.0496750000000        -6.349497301631972E-013
   32.1627250000000        -6.395389603357474E-013
   32.2757750000000        -6.440198152888106E-013
   32.3888250000000        -6.484039565616924E-013
   32.5018750000000        -6.527033483972189E-013
   32.6149250000000        -6.569300096919921E-013
   32.7279750000000        -6.610960142533184E-013
   32.8410250000000        -6.652134471745216E-013
   32.9540750000000        -6.692945740033630E-013
   33.0671250000000        -6.733519005749977E-013
   33.1801750000000        -6.773983957498042E-013
   33.2932250000000        -6.814476188287557E-013
   33.4062750000000        -6.855137033519864E-013
   33.5193250000000        -6.896113672675226E-013
   33.6323750000000        -6.937562291520768E-013
   33.7454250000000        -6.979643631370608E-013
   33.8584750000000        -7.022523065073959E-013
   33.9715250000000        -7.066366369857007E-013
   34.0845750000000        -7.111338756036080E-013
   34.1976250000000        -7.157598593873770E-013
   34.3106750000000        -7.205292361113163E-013
   34.4237250000000        -7.254551278377913E-013
   34.5367750000000        -7.305487319609052E-013
   34.6498250000000        -7.358185179604154E-013
   34.7628750000000        -7.412701713123364E-013
   34.8759250000000        -7.469061472482734E-013
   34.9889750000000        -7.527254031159377E-013
   35.1020250000000        -7.587235954043979E-013
   35.2150750000000        -7.648930617202417E-013
   35.3281250000000        -7.712230102072792E-013
   35.4411750000000        -7.777000339246104E-013
   35.5542250000000        -7.843084529985044E-013
   35.6672750000000        -7.910308711477627E-013
   35.7803250000000        -7.978489894219887E-013
   35.8933750000000        -8.047441888333832E-013
   36.0064250000000        -8.116982759668487E-013
   36.1194750000000        -8.186940210037682E-013
   36.2325250000000        -8.257160115030282E-013
   36.3455750000000        -8.327509657783532E-013
   36.4586250000000        -8.397882036267069E-013
   36.5716750000000        -8.468198318569062E-013
   36.6847250000000        -8.538409864507168E-013
   36.7977750000000        -8.608497737396570E-013
   36.9108250000000        -8.678468469482479E-013
   37.0238750000000        -8.748353039465562E-013
   37.1369250000000        -8.818201842990718E-013
   37.2499750000000        -8.888079751062097E-013
   37.3630250000000        -8.958060159281654E-013
   37.4760750000000        -9.028219806913112E-013
   37.5891250000000        -9.098632704285308E-013
   37.7021750000000        -9.169365893690138E-013
   37.8152250000000        -9.240473403546061E-013
   37.9282750000000        -9.311994568489549E-013
   38.0413250000000        -9.383951198629866E-013
   38.1543750000000        -9.456345331657704E-013
   38.2674250000000        -9.529160749083515E-013
   38.3804750000000        -9.602363122616371E-013
   38.4935250000000        -9.675903231554608E-013
   38.6065750000000        -9.749719089271900E-013
   38.7196250000000        -9.823741402842844E-013
   38.8326750000000        -9.897896028424130E-013
   38.9457250000000        -9.972108964243113E-013
   39.0587750000000        -1.004630910377896E-012
   39.1718250000000        -1.012043184018060E-012
   39.2848750000000        -1.019442129565950E-012
   39.3979250000000        -1.026823182039683E-012
   39.5109750000000        -1.034182793129508E-012
   39.6240250000000        -1.041518361186136E-012
   39.7370750000000        -1.048828180692911E-012
   39.8501250000000        -1.056111147459167E-012
   39.9631750000000        -1.063366555992592E-012
   40.0762250000000        -1.070593745011554E-012
   40.1892750000000        -1.077791804789137E-012
   40.3023250000000        -1.084959190930436E-012
   40.4153750000000        -1.092093576733031E-012
   40.5284250000000        -1.099191700502780E-012
   40.6414750000000        -1.106249111586380E-012
   40.7545250000000        -1.113260242350210E-012
   40.8675750000000        -1.120218629314439E-012
   40.9806250000000        -1.127117079510575E-012
   41.0936750000000        -1.133948146284148E-012
   41.2067250000000        -1.140704543063485E-012
   41.3197750000000        -1.147379751662533E-012
   41.4328250000000        -1.153968692420329E-012
   41.5458750000000        -1.160468289474552E-012
   41.6589250000000        -1.166878075076788E-012
   41.7719750000000        -1.173200756604852E-012
   41.8850250000000        -1.179442710527893E-012
   41.9980750000000        -1.185614331953974E-012
   42.1111250000000        -1.191730185293821E-012
   42.2241750000000        -1.197809297344461E-012
   42.3372250000000        -1.203874914314886E-012
   42.4502750000000        -1.209954249774845E-012
   42.5633250000000        -1.216078109784782E-012
   42.6763750000000        -1.222280140597677E-012
   42.7894250000000        -1.228596243994475E-012
   42.9024750000000        -1.235063657146851E-012
   43.0155250000000        -1.241719847637694E-012
   43.1285750000000        -1.248601392193550E-012
   43.2416250000000        -1.255743150679092E-012
   43.3546750000000        -1.263177030421989E-012
   43.4677250000000        -1.270931104346965E-012
   43.5807750000000        -1.279028496718338E-012
   43.6938250000000        -1.287486649755563E-012
   43.8068750000000        -1.296316598041921E-012
   43.9199250000000        -1.305522468196294E-012
   44.0329750000000        -1.315101089830329E-012
   44.1460250000000        -1.325041653445952E-012
   44.2590750000000        -1.335325756312951E-012
   44.3721250000000        -1.345927411828120E-012
   44.4851750000000        -1.356813634726741E-012
   44.5982250000000        -1.367944482951374E-012
   44.7112750000000        -1.379273953542555E-012
   44.8243250000000        -1.390750705575229E-012
   44.9373750000000        -1.402318980947297E-012
   45.0504250000000        -1.413919469216201E-012
   45.1634750000000        -1.425490495490810E-012
   45.2765250000000        -1.436968926073722E-012
   45.3895750000000        -1.448291680324889E-012
   45.5026250000000        -1.459396654626773E-012
   45.6156750000000        -1.470224090543579E-012
   45.7287250000000        -1.480717848679055E-012
   45.8417750000000        -1.490826526441758E-012
   45.9548250000000        -1.500504616817743E-012
   46.0678750000000        -1.509713725064670E-012
   46.1809250000000        -1.518423376996013E-012
   46.2939750000000        -1.526612019166500E-012
   46.4070250000000        -1.534267714462827E-012
   46.5200750000000        -1.541388684813665E-012
   46.6331250000000        -1.547983602810821E-012
   46.7461750000000        -1.554071759400905E-012
   46.8592250000000        -1.559682956063111E-012
   46.9722750000000        -1.564857069615815E-012
   47.0853250000000        -1.569643618016890E-012
   47.1983750000000        -1.574100886853672E-012
   47.3114250000000        -1.578294842448701E-012
   47.4244750000000        -1.582297843295946E-012
   47.5375250000000        -1.586187396873540E-012
   47.6505750000000        -1.590044316988719E-012
   47.7636250000000        -1.593951285044064E-012
   47.8766750000000        -1.597990945416075E-012
   47.9897250000000        -1.602244166870094E-012
   48.1027750000000        -1.606788368989000E-012
   48.2158250000000        -1.611696033814306E-012
   48.3288750000000        -1.617033067027417E-012
   48.4419250000000        -1.622857678083505E-012
   48.5549750000000        -1.629219418177886E-012
   48.6680250000000        -1.636158347628209E-012
   48.7810750000000        -1.643704515334256E-012
   48.8941250000000        -1.651878021102181E-012
   49.0071750000000        -1.660688708818487E-012
   49.1202250000000        -1.670136972119135E-012
   49.2332750000000        -1.680213865542680E-012
   49.3463250000000        -1.690902427808506E-012
   49.4593750000000        -1.702178250101487E-012
   49.5724250000000        -1.714010430948809E-012
   49.6854750000000        -1.726363162972993E-012
   49.7985250000000        -1.739196358582050E-012
   49.9115750000000        -1.752466786179403E-012
   50.0246250000000        -1.766129199352755E-012
   50.1376750000000        -1.780136890587573E-012
   50.2507250000000        -1.794442611577584E-012
   50.3637750000000        -1.808998752582438E-012
   50.4768250000000        -1.823757984175045E-012
   50.5898750000000        -1.838673072713223E-012
   50.7029250000000        -1.853697170699167E-012
   50.8159750000000        -1.868783628876942E-012
   50.9290250000000        -1.883885756907984E-012
   51.0420750000000        -1.898956803675282E-012
   51.1551250000000        -1.913949834106793E-012
   51.2681750000000        -1.928817425789517E-012
   51.3812250000000        -1.943511746995671E-012
   51.4942750000000        -1.957984855994428E-012
   51.6073250000000        -1.972188899521004E-012
   51.7203750000000        -1.986076436393722E-012
   51.8334250000000        -1.999601332107392E-012
   51.9464750000000        -2.012719361953307E-012
   52.0595250000000        -2.025389265404911E-012
   52.1725750000000        -2.037573761177823E-012
   52.2856250000000        -2.049240628841950E-012
   52.3986750000000        -2.060363770298831E-012
   52.5117250000000        -2.070924405779575E-012
   52.6247750000000        -2.080911909503996E-012
   52.7378250000000        -2.090324649415838E-012
   52.8508750000000        -2.099170526202589E-012
   52.9639250000000        -2.107467383438052E-012
   53.0769750000000        -2.115243033245950E-012
   53.1900250000000        -2.122535099221533E-012
   53.3030750000000        -2.129390352931204E-012
   53.4161250000000        -2.135863956077371E-012
   53.5291750000000        -2.142018552647911E-012
   53.6422250000000        -2.147922709358291E-012
   53.7552750000000        -2.153649626366029E-012
   53.8683250000000        -2.159275521720116E-012
   53.9813750000000        -2.164878000418677E-012
   54.0944250000000        -2.170534603024445E-012
   54.2074750000000        -2.176321030395397E-012
   54.3205250000000        -2.182309886561257E-012
   54.4335750000000        -2.188569586644287E-012
   54.5466250000000        -2.195163108447085E-012
   54.6596750000000        -2.202147489055859E-012
   54.7727250000000        -2.209573355816434E-012
   54.8857750000000        -2.217484682061681E-012
   54.9988250000000        -2.225918758877379E-012
   55.1118750000000        -2.234906563261842E-012
   55.2249250000000        -2.244473171051159E-012
   55.3379750000000        -2.254638163021105E-012
   55.4510250000000        -2.265416248808759E-012
   55.5640750000000        -2.276817581589320E-012
   55.6771250000000        -2.288848639644067E-012
   55.7901750000000        -2.301512342245685E-012
   55.9032250000000        -2.314808145433048E-012
   56.0162750000000        -2.328731954896588E-012
   56.1293250000000        -2.343275838013569E-012
   56.2423750000000        -2.358427592639829E-012
   56.3554250000000        -2.374169852289706E-012
   56.4684750000000        -2.390479179129896E-012
   56.5815250000000        -2.407324963925640E-012
   56.6945750000000        -2.424668295769363E-012
   56.8076250000000        -2.442460932211053E-012
   56.9206750000000        -2.460644020300157E-012
   57.0337250000000        -2.479147231509203E-012
   57.1467750000000        -2.497888472299538E-012
   57.2598250000000        -2.516773547093996E-012
   57.3728750000000        -2.535696600666067E-012
   57.4859250000000        -2.554540929197156E-012
   57.5989750000000        -2.573180373558283E-012
   57.7120250000000        -2.591481691215246E-012
   57.8250750000000        -2.609307023746531E-012
   57.9381250000000        -2.626517561294745E-012
   58.0511750000000        -2.642977427413299E-012
   58.1642250000000        -2.658558047053717E-012
   58.2772750000000        -2.673143129012387E-012
   58.3903250000000        -2.686633525748583E-012
   58.5033750000000        -2.698952573503992E-012
   58.6164250000000        -2.710050835802405E-012
   58.7294750000000        -2.719910620839716E-012
   58.8425250000000        -2.728550253937846E-012
   58.9555750000000        -2.736026968524140E-012
   59.0686250000000        -2.742439066747561E-012
   59.1816750000000        -2.747926809151040E-012
   59.2947250000000        -2.752671917428073E-012
   59.4077750000000        -2.756895368756561E-012
   59.5208250000000        -2.760853382330155E-012
   59.6338750000000        -2.764832103320312E-012
   59.7469250000000        -2.769140102936777E-012
   59.8599750000000        -2.774099734726507E-012
   59.9730250000000        -2.780036399119163E-012
   60.0860750000000        -2.787266814138885E-012
   60.1991250000000        -2.796086375374625E-012
   60.3121750000000        -2.806755589397183E-012
   60.4252250000000        -2.819486945701091E-012
   60.5382750000000        -2.834431408099049E-012
   60.6513250000000        -2.851666050199309E-012
   60.7643750000000        -2.871183082280680E-012
   60.8774250000000        -2.892880963648721E-012
   60.9904750000000        -2.916558141133092E-012
   61.1035250000000        -2.941909548417465E-012
   61.2165750000000        -2.968527242199767E-012
   61.3296250000000        -2.995904683816654E-012
   61.4426750000000        -3.023445525800240E-012
   61.5557250000000        -3.050476850250350E-012
   61.6687750000000        -3.076266880986464E-012
   61.7818250000000        -3.100047203328817E-012
   61.8948750000000        -3.121038798356189E-012
   62.0079250000000        -3.138481967477870E-012
   62.1209750000000        -3.151668712148345E-012
   62.2340250000000        -3.159976986965813E-012
   62.3470750000000        -3.162905835460039E-012
   62.4601250000000        -3.160109856804573E-012
   62.5731750000000        -3.151431663379955E-012
   62.6862250000000        -3.136931128607741E-012
   62.7992750000000        -3.116909430753527E-012
   62.9123250000000        -3.091926989846713E-012
   63.0253750000000        -3.062812904342349E-012
   63.1384250000000        -3.030665896596517E-012
   63.2514750000000        -2.996844789876801E-012
   63.3645250000000        -2.962947404235872E-012
   63.4775750000000        -2.930778597746112E-012
   63.5906250000000        -2.902306109108934E-012
   63.7036750000000        -2.879605172731888E-012
   63.8167250000000        -2.864792803732487E-012
   63.9297750000000        -2.859952477384421E-012
   64.0428250000000        -2.867051687046444E-012
   64.1558750000000        -2.887854126332447E-012
   64.2689250000000        -2.923829507926754E-012
   64.3819750000000        -2.976064446529326E-012
   64.4950250000000        -3.045176945841614E-012
   64.6080750000000        -3.131239179983952E-012
   64.7211250000000        -3.233711958107738E-012
   64.8341750000000        -3.351394182442954E-012
   64.9472250000000        -3.482391499361261E-012
   65.0602750000000        -3.624107031898276E-012
   65.1733250000000        -3.773257155027496E-012
   65.2863750000000        -3.925914187317300E-012
   65.3994250000000        -4.077577612791803E-012
   65.5124750000000        -4.223273981143457E-012