 -0.847875000000000         6.736300136628074E-018
 -0.734825000000000         6.734266322634699E-018
 -0.621775000000000         6.736089227360626E-018
 -0.508725000000000         6.782430988622053E-018
 -0.395675000000000         7.074265985534800E-018
 -0.282625000000000         8.411933169014207E-018
 -0.169575000000000         1.350177463026809E-017
 -5.652500000000005E-002    3.019971221993278E-017
  5.652499999999994E-002    7.849239730952525E-017
  0.169575000000000         2.038950915647088E-016
  0.282625000000000         4.996471636621473E-016
  0.395675000000000         1.141904609240079E-015
  0.508725000000000         2.438858881381751E-015
  0.621775000000000         4.895622564976611E-015
  0.734825000000000         9.297124232656157E-015
  0.847875000000000         1.680425620101947E-014
  0.960925000000000         2.907321025443010E-014
   1.07397500000000         4.836380070886953E-014
   1.18702500000000         7.767814519699937E-014
   1.30007500000000         1.208934798484766E-013
   1.41312500000000         1.828979742870381E-013
   1.52617500000000         2.697183627730400E-013
   1.63922500000000         3.886474564700588E-013
   1.75227500000000         5.483324900340922E-013
   1.86532500000000         7.588776748310077E-013
   1.97837500000000         1.031900524400497E-012
   2.09142500000000         1.380588641612201E-012
   2.20447500000000         1.819688708818144E-012
   2.31752500000000         2.365501032911872E-012
   2.43057500000000         3.035780623863858E-012
   2.54362500000000         3.849704699664558E-012
   2.65667500000000         4.827670514281093E-012
   2.76972500000000         5.991183098096276E-012
   2.88277500000000         7.362621592408802E-012
   2.99582500000000         8.965060609342476E-012
   3.10887500000000         1.082194769675224E-011
   3.22192500000000         1.295693647740622E-011
   3.33497500000000         1.539351612522351E-011
   3.44802500000000         1.815481192174478E-011
   3.56107500000000         2.126326564658285E-011
   3.67412500000000         2.474036701746153E-011
   3.78717500000000         2.860640360102646E-011
   3.90022500000000         3.288027818575460E-011
   4.01327500000000         3.757929138300992E-011
   4.12632500000000         4.271902253565395E-011
   4.23937500000000         4.831317825774258E-011
   4.35242500000000         5.437352524195834E-011
   4.46547500000000         6.090991003980720E-011
   4.57852500000000         6.793026635917549E-011
   4.69157500000000         7.544064879022565E-011
   4.80462500000000         8.344536961034450E-011
   4.91767500000000         9.194708184480028E-011
   5.03072500000000         1.009469333902265E-010
   5.14377500000000         1.104447758115491E-010
   5.25682500000000         1.204393886609076E-010
   5.36987500000000         1.309285958712105E-010
   5.48292500000000         1.419094010548350E-010
   5.59597500000000         1.533783296777362E-010
   5.70902500000000         1.653314803690083E-010
   5.82207500000000         1.777647676048656E-010
   5.93512500000000         1.906739398734830E-010
   6.04817500000000         2.040547150835822E-010
   6.16122500000000         2.179028837795541E-010
   6.27427500000000         2.322143927560296E-010
   6.38732500000000         2.469853079974114E-010
   6.50037500000000         2.622119529434937E-010
   6.61342500000000         2.778908544619792E-010
   6.72647500000000         2.940187980757612E-010
   6.83952500000000         3.105927960329989E-010
   6.95257500000000         3.276101992951998E-010
   7.06562500000000         3.450685737296729E-010
   7.17867500000000         3.629658945872163E-010
   7.29172500000000         3.813005379608318E-010
   7.40477500000000         4.000713249527361E-010
   7.51782500000000         4.192776748492139E-010
   7.63087500000000         4.389196696046246E-010
   7.74392500000000         4.589981498366634E-010
   7.85697500000000         4.795148488803113E-010
   7.97002500000000         5.004725268051159E-010
   8.08307500000000         5.218750932687191E-010
   8.19612500000000         5.437276543531993E-010
   8.30917500000000         5.660366033522769E-010
   8.42222500000000         5.888096470724634E-010
   8.53527500000000         6.120557960701288E-010
   8.64832500000000         6.357853981595834E-010
   8.76137500000000         6.600100103084726E-010
   8.87442500000000         6.847422246479059E-010
   8.98747500000000         7.099955369825157E-010
   9.10052500000000         7.357841360494422E-010
   9.21357500000000         7.621225825519374E-010
   9.32662500000000         7.890255922573986E-010
   9.43967500000000         8.165077122927335E-010
   9.55272500000000         8.445829628910057E-010
   9.66577500000000         8.732645255496288E-010
   9.77882500000000         9.025643866883770E-010
   9.89187500000000         9.324930614439876E-010
   10.0049250000000         9.630593889595534E-010
   10.1179750000000         9.942701623946653E-010
   10.2310250000000         1.026130019164457E-009
   10.3440750000000         1.058641361573893E-009
   10.4571250000000         1.091804242879111E-009
   10.5701750000000         1.125616418811301E-009
   10.6832250000000         1.160073392252251E-009
   10.7962750000000         1.195168523524805E-009
   10.9093250000000         1.230893240393474E-009
   11.0223750000000         1.267237295808086E-009
   11.1354250000000         1.304189035643329E-009
   11.2484750000000         1.341735702509296E-009
   11.3615250000000         1.379863746485980E-009
   11.4745750000000         1.418559173904606E-009
   11.5876250000000         1.457807895066303E-009
   11.7006750000000         1.497595992999189E-009
   11.8137250000000         1.537910047768613E-009
   11.9267750000000         1.578737385631973E-009
   12.0398250000000         1.620066230191386E-009
   12.1528750000000         1.661885961739899E-009
   12.2659250000000         1.704187147097678E-009
   12.3789750000000         1.746961649044192E-009
   12.4920250000000         1.790202674007143E-009
   12.6050750000000         1.833904752171063E-009
   12.7181250000000         1.878063701454428E-009
   12.8311750000000         1.922676530799193E-009
   12.9442250000000         1.967741414950253E-009
   13.0572750000000         2.013257533245742E-009
   13.1703250000000         2.059225013836661E-009
   13.2833750000000         2.105644832750064E-009
   13.3964250000000         2.152518731151549E-009
   13.5094750000000         2.199849125861814E-009
   13.6225250000000         2.247639096187511E-009
   13.7355750000000         2.295892328797716E-009
   13.8486250000000         2.344613077181938E-009
   13.9616750000000         2.393806192717283E-009
   14.0747250000000         2.443477047525608E-009
   14.1877750000000         2.493631648968466E-009
   14.3008250000000         2.544276587294313E-009
   14.4138750000000         2.595419085415361E-009
   14.5269250000000         2.647066935716961E-009
   14.6399750000000         2.699228464770993E-009
   14.7530250000000         2.751912542378263E-009
   14.8660750000000         2.805128484574988E-009
   14.9791250000000         2.858885976165231E-009
   15.0921750000000         2.913194939285207E-009
   15.2052250000000         2.968065422585968E-009
   15.3182750000000         3.023507418982373E-009
   15.4313250000000         3.079530695197357E-009
   15.5443750000000         3.136144707081312E-009
   15.6574250000000         3.193358443539866E-009
   15.7704750000000         3.251180203283725E-009
   15.8835250000000         3.309617612213352E-009
   15.9965750000000         3.368677472375965E-009
   16.1096250000000         3.428365706273840E-009
   16.2226750000000         3.488687429921927E-009
   16.3357250000000         3.549647003193884E-009
   16.4487750000000         3.611248111784097E-009
   16.5618250000000         3.673493927166623E-009
   16.6748750000000         3.736387290526837E-009
   16.7879250000000         3.799930985272698E-009
   16.9009750000000         3.864127928315219E-009
   17.0140250000000         3.928981435686378E-009
   17.1270750000000         3.994495561205856E-009
   17.2401250000000         4.060675277267155E-009
   17.3531750000000         4.127526727611881E-009
   17.4662250000000         4.195057528607041E-009
   17.5792750000000         4.263276790205792E-009
   17.6923250000000         4.332195232684640E-009
   17.8053750000000         4.401825223271635E-009
   17.9184250000000         4.472180759525287E-009
   18.0314750000000         4.543277307797399E-009
   18.1445250000000         4.615131656682381E-009
   18.2575750000000         4.687761596138027E-009
   18.3706250000000         4.761185592568328E-009
   18.4836750000000         4.835422473336577E-009
   18.5967250000000         4.910490999237387E-009
   18.7097750000000         4.986409431401922E-009
   18.8228250000000         5.063195054963436E-009
   18.9358750000000         5.140863833804169E-009
   19.0489250000000         5.219429942280650E-009
   19.1619750000000         5.298905495121945E-009
   19.2750250000000         5.379300156766767E-009
   19.3880750000000         5.460621052396745E-009
   19.5011250000000         5.542872583491361E-009
   19.6141750000000         5.626056368579549E-009
   19.7272250000000         5.710171337922810E-009
   19.8402750000000         5.795213899138117E-009
   19.9533250000000         5.881178139570557E-009
   20.0663750000000         5.968056222411611E-009
   20.1794250000000         6.055838735430044E-009
   20.2924750000000         6.144515225330500E-009
   20.4055250000000         6.234074616450977E-009
   20.5185750000000         6.324505871692553E-009
   20.6316250000000         6.415798436596701E-009
   20.7446750000000         6.507942869472822E-009
   20.8577250000000         6.600931374224427E-009
   20.9707750000000         6.694758192217108E-009
   21.0838250000000         6.789420131128962E-009
   21.1968750000000         6.884916907981739E-009
   21.3099250000000         6.981251423423244E-009
   21.4229750000000         7.078429964643396E-009
   21.5360250000000         7.176462357085865E-009
   21.6490750000000         7.275361942454900E-009
   21.7621250000000         7.375145539210023E-009
   21.8751750000000         7.475833294477784E-009
   21.9882250000000         7.577448514509629E-009
   22.1012750000000         7.680017312772534E-009
   22.2143250000000         7.783568324867640E-009
   22.3273750000000         7.888132327467118E-009
   22.4404250000000         7.993741798752965E-009
   22.5534750000000         8.100430495455125E-009
   22.6665250000000         8.208233026955941E-009
   22.7795750000000         8.317184444904807E-009
   22.8926250000000         8.427319829642619E-009
   23.0056750000000         8.538673891391258E-009
   23.1187250000000         8.651280637209498E-009
   23.2317750000000         8.765173044479197E-009
   23.3448250000000         8.880382756332812E-009
   23.4578750000000         8.996939911048079E-009
   23.5709250000000         9.114872920382953E-009
   23.6839750000000         9.234208323234443E-009
   23.7970250000000         9.354970648659274E-009
   23.9100750000000         9.477182374506818E-009
   24.0231250000000         9.600863830975742E-009
   24.1361750000000         9.726033179733596E-009
   24.2492250000000         9.852706479377967E-009
   24.3622750000000         9.980897584176461E-009
   24.4753250000000         1.011061823323937E-008
   24.5883750000000         1.024187798581688E-008
   24.7014250000000         1.037468432605344E-008
   24.8144750000000         1.050904268917065E-008
   24.9275250000000         1.064495643636661E-008
   25.0405750000000         1.078242690961189E-008
   25.1536250000000         1.092145350006156E-008
   25.2666750000000         1.106203365850562E-008
   25.3797250000000         1.120416297394564E-008
   25.4927750000000         1.134783523442880E-008
   25.6058250000000         1.149304247705563E-008
   25.7188750000000         1.163977517600083E-008
   25.8319250000000         1.178802235013880E-008
   25.9449750000000         1.193777168963721E-008
   26.0580250000000         1.208900973876349E-008
   26.1710750000000         1.224172215227688E-008
   26.2841250000000         1.239589393012857E-008
   26.3971750000000         1.255150973708833E-008
   26.5102250000000         1.270855412557926E-008
   26.6232750000000         1.286701196333048E-008
   26.7363250000000         1.302686868605738E-008
   26.8493750000000         1.318811071824772E-008
   26.9624250000000         1.335072584470717E-008
   27.0754750000000         1.351470349818366E-008
   27.1885250000000         1.368003517762246E-008
   27.3015750000000         1.384671467607746E-008
   27.4146250000000         1.401473847483192E-008
   27.5276750000000         1.418410590048336E-008
   27.6407250000000         1.435481933377623E-008
   27.7537750000000         1.452688434015954E-008
   27.8668250000000         1.470030975931754E-008
   27.9798750000000         1.487510770350489E-008
   28.0929250000000         1.505129351261298E-008
   28.2059750000000         1.522888561410445E-008
   28.3190250000000         1.540790531103568E-008
   28.4320750000000         1.558837648931853E-008
   28.5451250000000         1.577032542645345E-008
   28.6581750000000         1.595378030262158E-008
   28.7712250000000         1.613877090462945E-008
   28.8842750000000         1.632532812777405E-008
   28.9973250000000         1.651348360809928E-008
   29.1103750000000         1.670326914456836E-008
   29.2234250000000         1.689471636006008E-008
   29.3364750000000         1.708785624296834E-008
   29.4495250000000         1.728271878959342E-008
   29.5625750000000         1.747933259859681E-008
   29.6756250000000         1.767772461534198E-008
   29.7886750000000         1.787791982993199E-008
   29.9017250000000         1.807994109515976E-008
   30.0147750000000         1.828380901824313E-008
   30.1278250000000         1.848954185598072E-008
   30.2408750000000         1.869715543830023E-008
   30.3539250000000         1.890666328977192E-008
   30.4669750000000         1.911807666109239E-008
   30.5800250000000         1.933140468589382E-008
   30.6930750000000         1.954665450089624E-008
   30.8061250000000         1.976383136626203E-008
   30.9191750000000         1.998293886586628E-008
   31.0322250000000         2.020397914093863E-008
   31.1452750000000         2.042695301634168E-008
   31.2583250000000         2.065186020758731E-008
   31.3713750000000         2.087869939697278E-008
   31.4844250000000         2.110746843263869E-008
   31.5974750000000         2.133816439051154E-008
   31.7105250000000         2.157078362304847E-008
   31.8235750000000         2.180532188239226E-008
   31.9366250000000         2.204177426953280E-008
   32.0496750000000         2.228013530959075E-008
   32.1627250000000         2.252039894174417E-008
   32.2757750000000         2.276255854096626E-008
   32.3888250000000         2.300660692098613E-008
   32.5018750000000         2.325253636195246E-008
   32.6149250000000         2.350033868902458E-008
   32.7279750000000         2.375000533987944E-008
   32.8410250000000         2.400152750270305E-008
   32.9540750000000         2.425489625171424E-008
   33.0671250000000         2.451010275367693E-008
   33.1801750000000         2.476713844639355E-008
   33.2932250000000         2.502599535114421E-008
   33.4062750000000         2.528666639868648E-008
   33.5193250000000         2.554914569689902E-008
   33.6323750000000         2.581342883684632E-008
   33.7454250000000         2.607951324039301E-008
   33.8584750000000         2.634739847472312E-008
   33.9715250000000         2.661708657792549E-008
   34.0845750000000         2.688858225214336E-008
   34.1976250000000         2.716189314316133E-008
   34.3106750000000         2.743702999563094E-008
   34.4237250000000         2.771400677273627E-008
   34.5367750000000         2.799284063596448E-008
   34.6498250000000         2.827355202769449E-008
   34.7628750000000         2.855616450415640E-008
   34.8759250000000         2.884070459920023E-008
   34.9889750000000         2.912720165734409E-008
   35.1020250000000         2.941568750324184E-008
   35.2150750000000         2.970619615239609E-008
   35.3281250000000         2.999876346013829E-008
   35.4411750000000         3.029342674654152E-008
   35.5542250000000         3.059022445389269E-008
   35.6672750000000         3.088919576563473E-008
   35.7803250000000         3.119038021617095E-008
   35.8933750000000         3.149381738886340E-008
   36.0064250000000         3.179954663295293E-008
   36.1194750000000         3.210760684341074E-008
   36.2325250000000         3.241803624360784E-008
   36.3455750000000         3.273087227378145E-008
   36.4586250000000         3.304615147918118E-008
   36.5716750000000         3.336390953229405E-008
   36.6847250000000         3.368418121969153E-008
   36.7977750000000         3.400700049304770E-008
   36.9108250000000         3.433240060752635E-008
   37.0238750000000         3.466041417768992E-008
   37.1369250000000         3.499107336149155E-008
   37.2499750000000         3.532440989491832E-008
   37.3630250000000         3.566045526000314E-008
   37.4760750000000         3.599924071055159E-008
   37.5891250000000         3.634079734451621E-008
   37.7021750000000         3.668515605455988E-008
   37.8152250000000         3.703234753985958E-008
   37.9282750000000         3.738240211909698E-008
   38.0413250000000         3.773534959403941E-008
   38.1543750000000         3.809121908369304E-008
   38.2674250000000         3.845003871671208E-008
   38.3804750000000         3.881183538130240E-008
   38.4935250000000         3.917663439563373E-008
   38.6065750000000         3.954445923629383E-008
   38.7196250000000         3.991533116956318E-008
   38.8326750000000         4.028926901262206E-008
   38.9457250000000         4.066628882865523E-008
   39.0587750000000         4.104640373493856E-008
   39.1718250000000         4.142962374871283E-008
   39.2848750000000         4.181595568995538E-008
   39.3979250000000         4.220540315504909E-008
   39.5109750000000         4.259796660962660E-008
   39.6240250000000         4.299364355179062E-008
   39.7370750000000         4.339242871648522E-008
   39.8501250000000         4.379431441376289E-008
   39.9631750000000         4.419929089406942E-008
   40.0762250000000         4.460734680752048E-008
   40.1892750000000         4.501846968437673E-008
   40.3023250000000         4.543264649365086E-008
   40.4153750000000         4.584986414940180E-008
   40.5284250000000         4.627011002982740E-008
   40.6414750000000         4.669337259047039E-008
   40.7545250000000         4.711964185491278E-008
   40.8675750000000         4.754890985688812E-008
   40.9806250000000         4.798117105331594E-008
   41.0936750000000         4.841642269651457E-008
   41.2067250000000         4.885466508645025E-008
   41.3197750000000         4.929590176043559E-008
   41.4328250000000         4.974013963470593E-008
   41.5458750000000         5.018738900352515E-008
   41.6589250000000         5.063766355740750E-008
   41.7719750000000         5.109098025928280E-008
   41.8850250000000         5.154735918049894E-008
   41.9980750000000         5.200682329047168E-008
   42.1111250000000         5.246939822644141E-008
   42.2241750000000         5.293511193978227E-008
   42.3372250000000         5.340399444844348E-008
   42.4502750000000         5.387607751142282E-008
   42.5633250000000         5.435139431357482E-008
   42.6763750000000         5.482997919964997E-008
   42.7894250000000         5.531186727089026E-008
   42.9024750000000         5.579709423340885E-008
   43.0155250000000         5.628569608151428E-008
   43.1285750000000         5.677770896209141E-008
   43.2416250000000         5.727316884290180E-008
   43.3546750000000         5.777211138976711E-008
   43.4677250000000         5.827457172723715E-008
   43.5807750000000         5.878058433464314E-008
   43.6938250000000         5.929018282922546E-008
   43.8068750000000         5.980339978013413E-008
   43.9199250000000         6.032026649997634E-008
   44.0329750000000         6.084081282364420E-008
   44.1460250000000         6.136506693344743E-008
   44.2590750000000         6.189305508662071E-008
   44.3721250000000         6.242480137603759E-008
   44.4851750000000         6.296032737197044E-008
   44.5982250000000         6.349965198345072E-008
   44.7112750000000         6.404279108598075E-008
   44.8243250000000         6.458975729554373E-008
   44.9373750000000         6.514055967134327E-008
   45.0504250000000         6.569520359421344E-008
   45.1634750000000         6.625369054823184E-008
   45.2765250000000         6.681601808952066E-008
   45.3895750000000         6.738217972032066E-008
   45.5026250000000         6.795216503125969E-008
   45.6156750000000         6.852595981318133E-008
   45.7287250000000         6.910354626201067E-008
   45.8417750000000         6.968490332257389E-008
   45.9548250000000         7.027000709461171E-008
   46.0678750000000         7.085883130521811E-008
   46.1809250000000         7.145134794931919E-008
   46.2939750000000         7.204752794750231E-008
   46.4070250000000         7.264734177347832E-008
   46.5200750000000         7.325076019338826E-008
   46.6331250000000         7.385775512086161E-008
   46.7461750000000         7.446830027153195E-008
   46.8592250000000         7.508237191074541E-008
   46.9722750000000         7.569994959892299E-008
   47.0853250000000         7.632101677597323E-008
   47.1983750000000         7.694556132123907E-008
   47.3114250000000         7.757357603224375E-008
   47.4244750000000         7.820505900132581E-008
   47.5375250000000         7.884001381234566E-008
   47.6505750000000         7.947844974985521E-008
   47.7636250000000         8.012038175667571E-008
   47.8766750000000         8.076583037440642E-008
   47.9897250000000         8.141482154668155E-008
   48.1027750000000         8.206738631996216E-008
   48.2158250000000         8.272356045097818E-008
   48.3288750000000         8.338338398598504E-008
   48.4419250000000         8.404690075163648E-008
   48.5549750000000         8.471415781645903E-008
   48.6680250000000         8.538520494302541E-008
   48.7810750000000         8.606009406720426E-008
   48.8941250000000         8.673887869167792E-008
   49.0071750000000         8.742161349252826E-008
   49.1202250000000         8.810835372047508E-008
   49.2332750000000         8.879915489489063E-008
   49.3463250000000         8.949407234657584E-008
   49.4593750000000         9.019316098024712E-008
   49.5724250000000         9.089647500325603E-008
   49.6854750000000         9.160406771165457E-008
   49.7985250000000         9.231599136560201E-008
   49.9115750000000         9.303229709866187E-008
   50.0246250000000         9.375303484358703E-008
   50.1376750000000         9.447825329681120E-008
   50.2507250000000         9.520799993324899E-008
   50.3637750000000         9.594232100494741E-008
   50.4768250000000         9.668126150108529E-008
   50.5898750000000         9.742486520021651E-008
   50.7029250000000         9.817317460804616E-008
   50.8159750000000         9.892623096387870E-008
   50.9290250000000         9.968407420080316E-008
   51.0420750000000         1.004467428584224E-007
   51.1551250000000         1.012142739856972E-007
   51.2681750000000         1.019867031181226E-007
   51.3812250000000         1.027640641851194E-007
   51.4942750000000         1.035463893663302E-007
   51.6073250000000         1.043337090546959E-007
   51.7203750000000         1.051260517937234E-007
   51.8334250000000         1.059234442158887E-007
   51.9464750000000         1.067259110352645E-007
   52.0595250000000         1.075334750488121E-007
   52.1725750000000         1.083461571855359E-007
   52.2856250000000         1.091639766027648E-007
   52.3986750000000         1.099869508382495E-007
   52.5117250000000         1.108150958986817E-007
   52.6247750000000         1.116484265001250E-007
   52.7378250000000         1.124869562790769E-007
   52.8508750000000         1.133306980160513E-007
   52.9639250000000         1.141796638850188E-007
   53.0769750000000         1.150338657187926E-007
   53.1900250000000         1.158933151999003E-007
   53.3030750000000         1.167580241495746E-007
   53.4161250000000         1.176280047555722E-007
   53.5291750000000         1.185032696590913E-007
   53.6422250000000         1.193838322246069E-007
   53.7552750000000         1.202697065459113E-007
   53.8683250000000         1.211609076054763E-007
   53.9813750000000         1.220574512603606E-007
   54.0944250000000         1.229593542019079E-007
   54.2074750000000         1.238666339955931E-007
   54.3205250000000         1.247793089292831E-007
   54.4335750000000         1.256973979749305E-007
   54.5466250000000         1.266209206625305E-007
   54.6596750000000         1.275498969153281E-007
   54.7727250000000         1.284843469349276E-007
   54.8857750000000         1.294242910908776E-007
   54.9988250000000         1.303697498219867E-007
   55.1118750000000         1.313207434912964E-007
   55.2249250000000         1.322772923232341E-007
   55.3379750000000         1.332394163798350E-007
   55.4510250000000         1.342071355258836E-007
   55.5640750000000         1.351804695009295E-007
   55.6771250000000         1.361594378564494E-007
   55.7901750000000         1.371440600898349E-007
   55.9032250000000         1.381343557526828E-007
   56.0162750000000         1.391303445629629E-007
   56.1293250000000         1.401320465358669E-007
   56.2423750000000         1.411394821069760E-007
   56.3554250000000         1.421526722970941E-007
   56.4684750000000         1.431716388496661E-007
   56.5815250000000         1.441964043760000E-007
   56.6945750000000         1.452269924241207E-007
   56.8076250000000         1.462634275578078E-007
   56.9206750000000         1.473057354688923E-007
   57.0337250000000         1.483539430080066E-007
   57.1467750000000         1.494080781109744E-007
   57.2598250000000         1.504681697891308E-007
   57.3728750000000         1.515342480075354E-007
   57.4859250000000         1.526063435542686E-007
   57.5989750000000         1.536844879199686E-007
   57.7120250000000         1.547687130016096E-007
   57.8250750000000         1.558590509214224E-007
   57.9381250000000         1.569555336682903E-007
   58.0511750000000         1.580581927655959E-007
   58.1642250000000         1.591670589442973E-007
   58.2772750000000         1.602821617205263E-007
   58.3903250000000         1.614035289816083E-007
   58.5033750000000         1.625311865033342E-007
   58.6164250000000         1.636651575241251E-007
   58.7294750000000         1.648054623255862E-007
   58.8425250000000         1.659521177044904E-007
   58.9555750000000         1.671051366000585E-007
   59.0686250000000         1.682645276921982E-007
   59.1816750000000         1.694302950296967E-007
   59.2947250000000         1.706024377528614E-007
   59.4077750000000         1.717809498748374E-007
   59.5208250000000         1.729658202040255E-007
   59.6338750000000         1.741570323535272E-007
   59.7469250000000         1.753545649073509E-007
   59.8599750000000         1.765583916403859E-007
   59.9730250000000         1.777684820804975E-007
   60.0860750000000         1.789848021439841E-007
   60.1991250000000         1.802073149401949E-007
   60.3121750000000         1.814359818257067E-007
   60.4252250000000         1.826707635082781E-007
   60.5382750000000         1.839116214628512E-007
   60.6513250000000         1.851585194065043E-007
   60.7643750000000         1.864114249041673E-007
   60.8774250000000         1.876703110499739E-007
   60.9904750000000         1.889351581763005E-007
   61.1035250000000         1.902059555992246E-007
   61.2165750000000         1.914827031435401E-007
   61.3296250000000         1.927654126580889E-007
   61.4426750000000         1.940541092687877E-007
   61.5557250000000         1.953488323081824E-007
   61.6687750000000         1.966496360020669E-007
   61.7818250000000         1.979565895984772E-007
   61.8948750000000         1.992697772314000E-007
   62.0079250000000         2.005892970494139E-007
   62.1209750000000         2.019152600003127E-007
   62.2340250000000         2.032477880120758E-007
   62.3470750000000         2.045870115798793E-007
   62.4601250000000         2.059330669243792E-007
   62.5731750000000         2.072860926868695E-007
   62.6862250000000         2.086462262072517E-007
   62.7992750000000         2.100135995765367E-007
   62.9123250000000         2.113883354423373E-007
   63.0253750000000         2.127705429238114E-007
   63.1384250000000         2.141603135750920E-007
   63.2514750000000         2.155577176051788E-007
   63.3645250000000         2.169628007828484E-007
   63.4775750000000         2.183755817468060E-007
   63.5906250000000         2.197960503870796E-007
   63.7036750000000         2.212241670214058E-007
   63.8167250000000         2.226598627187649E-007
   63.9297750000000         2.241030409478817E-007
   64.0428250000000         2.255535803709025E-007
   64.1558750000000         2.270113390072889E-007
   64.2689250000000         2.284761597490651E-007
   64.3819750000000         2.299478768879855E-007
   64.4950250000000         2.314263239334123E-007
   64.6080750000000         2.329113421202876E-007
   64.7211250000000         2.344027896209515E-007
   64.8341750000000         2.359005510916021E-007
   64.9472250000000         2.374045472127363E-007
   65.0602750000000         2.389147438175544E-007
   65.1733250000000         2.404311602534242E-007
   65.2863750000000         2.419538764719408E-007
   65.3994250000000         2.434830385659445E-007
   65.5124750000000         2.450188623170341E-007