 -0.847875000000000         4.410465363530118E-019
 -0.734825000000000         1.006847215982354E-018
 -0.621775000000000         4.447772858376011E-018
 -0.508725000000000         1.934433801483656E-017
 -0.395675000000000         7.221923817187592E-017
 -0.282625000000000         2.247757046030475E-016
 -0.169575000000000         5.956696367221586E-016
 -5.652500000000005E-002    1.350368433167444E-015
  5.652499999999994E-002    2.634213622731054E-015
  0.169575000000000         4.389302794473562E-015
  0.282625000000000         6.291649592837666E-015
  0.395675000000000         7.496912495127607E-015
  0.508725000000000         6.606249311020333E-015
  0.621775000000000         1.591130191607802E-015
  0.734825000000000        -9.942949165609803E-015
  0.847875000000000        -3.096232639907092E-014
  0.960925000000000        -6.553058245590086E-014
   1.07397500000000        -1.176243170890940E-013
   1.18702500000000        -1.914763883171152E-013
   1.30007500000000        -2.925428024424170E-013
   1.41312500000000        -4.260110919742407E-013
   1.52617500000000        -5.976598701726951E-013
   1.63922500000000        -8.131858822589164E-013
   1.75227500000000        -1.079084968473858E-012
   1.86532500000000        -1.402617583575068E-012
   1.97837500000000        -1.786598666191265E-012
   2.09142500000000        -2.238333772409802E-012
   2.20447500000000        -2.762118140659380E-012
   2.31752500000000        -3.361222480931805E-012
   2.43057500000000        -4.041222625012607E-012
   2.54362500000000        -4.803526379376271E-012
   2.65667500000000        -5.647907201647713E-012
   2.76972500000000        -6.574406374224721E-012
   2.88277500000000        -7.581908452485567E-012
   2.99582500000000        -8.665338010672634E-012
   3.10887500000000        -9.820700816530509E-012
   3.22192500000000        -1.104143826285567E-011
   3.33497500000000        -1.232038465859190E-011
   3.44802500000000        -1.364951341549524E-011
   3.56107500000000        -1.501574531451658E-011
   3.67412500000000        -1.641272431537179E-011
   3.78717500000000        -1.782490377714047E-011
   3.90022500000000        -1.924554330341483E-011
   4.01327500000000        -2.066460173469703E-011
   4.12632500000000        -2.206690734707893E-011
   4.23937500000000        -2.344859782142670E-011
   4.35242500000000        -2.479808285242770E-011
   4.46547500000000        -2.611498833566041E-011
   4.57852500000000        -2.739307756184100E-011
   4.69157500000000        -2.863140476674019E-011
   4.80462500000000        -2.983273331507924E-011
   4.91767500000000        -3.099970412763873E-011
   5.03072500000000        -3.213920796053644E-011
   5.14377500000000        -3.326112911480507E-011
   5.25682500000000        -3.437286866596311E-011
   5.36987500000000        -3.548656895084765E-011
   5.48292500000000        -3.661494889019399E-011
   5.59597500000000        -3.777186343092778E-011
   5.70902500000000        -3.896798503813987E-011
   5.82207500000000        -4.021099497960106E-011
   5.93512500000000        -4.151817634403016E-011
   6.04817500000000        -4.289131660217288E-011
   6.16122500000000        -4.432957114818921E-011
   6.27427500000000        -4.583235380242740E-011
   6.38732500000000        -4.739581740003363E-011
   6.50037500000000        -4.901260032449253E-011
   6.61342500000000        -5.065927823258014E-011
   6.72647500000000        -5.232416474484110E-011
   6.83952500000000        -5.397286743883799E-011
   6.95257500000000        -5.559411355701346E-011
   7.06562500000000        -5.714239292477589E-011
   7.17867500000000        -5.858695855490056E-011
   7.29172500000000        -5.989631277306876E-011
   7.40477500000000        -6.103992282059762E-011
   7.51782500000000        -6.198227089481999E-011
   7.63087500000000        -6.269346184440837E-011
   7.74392500000000        -6.315835753244345E-011
   7.85697500000000        -6.334983671284372E-011
   7.97002500000000        -6.325333336878865E-011
   8.08307500000000        -6.287180169574263E-011
   8.19612500000000        -6.220314036403895E-011
   8.30917500000000        -6.126132666548688E-011
   8.42222500000000        -6.005965486424141E-011
   8.53527500000000        -5.863081919304593E-011
   8.64832500000000        -5.700484407792053E-011
   8.76137500000000        -5.522046042424268E-011
   8.87442500000000        -5.332270639267505E-011
   8.98747500000000        -5.135437895954206E-011
   9.10052500000000        -4.936377901339752E-011
   9.21357500000000        -4.739850040378042E-011
   9.32662500000000        -4.550174431345855E-011
   9.43967500000000        -4.370816406104393E-011
   9.55272500000000        -4.205301388267899E-011
   9.66577500000000        -4.056074139489541E-011
   9.77882500000000        -3.924851501259253E-011
   9.89187500000000        -3.812281553291554E-011
   10.0049250000000        -3.717962360002505E-011
   10.1179750000000        -3.641215227975878E-011
   10.2310250000000        -3.579988052989609E-011
   10.3440750000000        -3.531254094748063E-011
   10.4571250000000        -3.492125728673669E-011
   10.5701750000000        -3.458763746832845E-011
   10.6832250000000        -3.427485722824621E-011
   10.7962750000000        -3.394084697697848E-011
   10.9093250000000        -3.355205685837670E-011
   11.0223750000000        -3.307263592150546E-011
   11.1354250000000        -3.247846462227880E-011
   11.2484750000000        -3.175177832587286E-011
   11.3615250000000        -3.087888795068346E-011
   11.4745750000000        -2.986192903023506E-011
   11.5876250000000        -2.870910970823409E-011
   11.7006750000000        -2.744228001567329E-011
   11.8137250000000        -2.608608514768003E-011
   11.9267750000000        -2.467536677333210E-011
   12.0398250000000        -2.325513096623128E-011
   12.1528750000000        -2.186805113229250E-011
   12.2659250000000        -2.055965270283522E-011
   12.3789750000000        -1.937533929559918E-011
   12.4920250000000        -1.835876809169804E-011
   12.6050750000000        -1.754399522221400E-011
   12.7181250000000        -1.696176780263317E-011
   12.8311750000000        -1.662455481760730E-011
   12.9442250000000        -1.655044786237359E-011
   13.0572750000000        -1.672530250461889E-011
   13.1703250000000        -1.713758220003467E-011
   13.2833750000000        -1.776119800841146E-011
   13.3964250000000        -1.855443402500000E-011
   13.5094750000000        -1.947366565143003E-011
   13.6225250000000        -2.046090392925758E-011
   13.7355750000000        -2.146065287039571E-011
   13.8486250000000        -2.241063447993739E-011
   13.9616750000000        -2.325463672326902E-011
   14.0747250000000        -2.392622210039142E-011
   14.1877750000000        -2.438610359255111E-011
   14.3008250000000        -2.458388187731118E-011
   14.4138750000000        -2.449259427513355E-011
   14.5269250000000        -2.409420359760589E-011
   14.6399750000000        -2.338296013579012E-011
   14.7530250000000        -2.235988565033900E-011
   14.8660750000000        -2.105305864582466E-011
   14.9791250000000        -1.949339025684872E-011
   15.0921750000000        -1.772006675905884E-011
   15.2052250000000        -1.579053384400517E-011
   15.3182750000000        -1.376437409893392E-011
   15.4313250000000        -1.170287825207092E-011
   15.5443750000000        -9.668230110453367E-012
   15.6574250000000        -7.729865710475162E-012
   15.7704750000000        -5.938907757268585E-012
   15.8835250000000        -4.355518058995576E-012
   15.9965750000000        -3.016874057086220E-012
   16.1096250000000        -1.961646758274305E-012
   16.2226750000000        -1.209436190412847E-012
   16.3357250000000        -7.706933290834802E-013
   16.4487750000000        -6.477413265285811E-013
   16.5618250000000        -8.237257413971881E-013
   16.6748750000000        -1.279406804597316E-012
   16.7879250000000        -1.983530416227563E-012
   16.9009750000000        -2.902615666863560E-012
   17.0140250000000        -3.991292220975942E-012
   17.1270750000000        -5.209957674256650E-012
   17.2401250000000        -6.516805547237832E-012
   17.3531750000000        -7.868142802923964E-012
   17.4662250000000        -9.234789580153676E-012
   17.5792750000000        -1.058279133520042E-011
   17.6923250000000        -1.188946796055410E-011
   17.8053750000000        -1.314809929803239E-011
   17.9184250000000        -1.434708130876546E-011
   18.0314750000000        -1.549317711319434E-011
   18.1445250000000        -1.659918213705514E-011
   18.2575750000000        -1.767982848863847E-011
   18.3706250000000        -1.875752248866060E-011
   18.4836750000000        -1.986539470468423E-011
   18.5967250000000        -2.102827682844220E-011
   18.7097750000000        -2.227744795008392E-011
   18.8228250000000        -2.363866694334623E-011
   18.9358750000000        -2.514069659838603E-011
   19.0489250000000        -2.680193996882000E-011
   19.1619750000000        -2.863393178321436E-011
   19.2750250000000        -3.064710798050959E-011
   19.3880750000000        -3.283777709755664E-011
   19.5011250000000        -3.519809826458768E-011
   19.6141750000000        -3.771317215599128E-011
   19.7272250000000        -4.035689623731981E-011
   19.8402750000000        -4.310063327690083E-011
   19.9533250000000        -4.590731250978278E-011
   20.0663750000000        -4.873946734657828E-011
   20.1794250000000        -5.155137632668211E-011
   20.2924750000000        -5.430235632746127E-011
   20.4055250000000        -5.694393723321490E-011
   20.5185750000000        -5.943548773373367E-011
   20.6316250000000        -6.173605039100042E-011
   20.7446750000000        -6.381015586339652E-011
   20.8577250000000        -6.562615138100994E-011
   20.9707750000000        -6.715792905876563E-011
   21.0838250000000        -6.838251193543911E-011
   21.1968750000000        -6.928989720316499E-011
   21.3099250000000        -6.986988049110027E-011
   21.4229750000000        -7.012117664585803E-011
   21.5360250000000        -7.005256310729726E-011
   21.6490750000000        -6.967003220767292E-011
   21.7621250000000        -6.899594129646274E-011
   21.8751750000000        -6.804642882389411E-011
   21.9882250000000        -6.685280608419253E-011
   22.1012750000000        -6.543827857358837E-011
   22.2143250000000        -6.384355357293736E-011
   22.3273750000000        -6.209654359271221E-011
   22.4404250000000        -6.023718545498275E-011
   22.5534750000000        -5.830097666258680E-011
   22.6665250000000        -5.633166638394947E-011
   22.7795750000000        -5.436640439129887E-011
   22.8926250000000        -5.243905407046252E-011
   23.0056750000000        -5.059114442493286E-011
   23.1187250000000        -4.885188548971795E-011
   23.2317750000000        -4.725847801668142E-011
   23.3448250000000        -4.583561472968558E-011
   23.4578750000000        -4.461022311746711E-011
   23.5709250000000        -4.360414327231624E-011
   23.6839750000000        -4.283146332398826E-011
   23.7970250000000        -4.230955356986195E-011
   23.9100750000000        -4.204329064867561E-011
   24.0231250000000        -4.203281359583613E-011
   24.1361750000000        -4.227442827248902E-011
   24.2492250000000        -4.276604697344567E-011
   24.3622750000000        -4.349322200943064E-011
   24.4753250000000        -4.444396866999178E-011
   24.5883750000000        -4.559837145158627E-011
   24.7014250000000        -4.692980479308450E-011
   24.8144750000000        -4.842097330159390E-011
   24.9275250000000        -5.004309423617838E-011
   25.0405750000000        -5.177078094989767E-011
   25.1536250000000        -5.357839148743390E-011
   25.2666750000000        -5.543846638142427E-011
   25.3797250000000        -5.732397637128387E-011
   25.4927750000000        -5.921240079766577E-011
   25.6058250000000        -6.107777918780671E-011
   25.7188750000000        -6.289720539949587E-011
   25.8319250000000        -6.465385565555125E-011
   25.9449750000000        -6.632443693067697E-011
   26.0580250000000        -6.788883371309212E-011
   26.1710750000000        -6.932819381891031E-011
   26.2841250000000        -7.062300971011303E-011
   26.3971750000000        -7.176200255857605E-011
   26.5102250000000        -7.271751091544688E-011
   26.6232750000000        -7.347598959144124E-011
   26.7363250000000        -7.401626992187600E-011
   26.8493750000000        -7.432158209887142E-011
   26.9624250000000        -7.437252600770442E-011
   27.0754750000000        -7.414966163710541E-011
   27.1885250000000        -7.363801036442167E-011
   27.3015750000000        -7.282342685687914E-011
   27.4146250000000        -7.169430769615665E-011
   27.5276750000000        -7.024387261347135E-011
   27.6407250000000        -6.846972233814261E-011
   27.7537750000000        -6.637336775012712E-011
   27.8668250000000        -6.396590360906613E-011
   27.9798750000000        -6.126133776093631E-011
   28.0929250000000        -5.828889622272515E-011
   28.2059750000000        -5.507476085650797E-011
   28.3190250000000        -5.166058080248389E-011
   28.4320750000000        -4.808790905997392E-011
   28.5451250000000        -4.441085051492406E-011
   28.6581750000000        -4.067943090561931E-011
   28.7712250000000        -3.695724286626941E-011
   28.8842750000000        -3.330039334892207E-011
   28.9973250000000        -2.977382867432974E-011
   29.1103750000000        -2.642986224395260E-011
   29.2234250000000        -2.332760185717162E-011
   29.3364750000000        -2.051241583135022E-011
   29.4495250000000        -1.802758852951438E-011
   29.5625750000000        -1.590867266486792E-011
   29.6756250000000        -1.417760071420847E-011
   29.7886750000000        -1.285147440273542E-011
   29.9017250000000        -1.192952849281449E-011
   30.0147750000000        -1.141178781570352E-011
   30.1278250000000        -1.128402173907367E-011
   30.2408750000000        -1.151479346878715E-011
   30.3539250000000        -1.207951059759493E-011
   30.4669750000000        -1.293861142522580E-011
   30.5800250000000        -1.405147789043777E-011
   30.6930750000000        -1.537376487121267E-011
   30.8061250000000        -1.686301140091544E-011
   30.9191750000000        -1.847161657094037E-011
   31.0322250000000        -2.015914611184552E-011
   31.1452750000000        -2.189401499897707E-011
   31.2583250000000        -2.363943555978469E-011
   31.3713750000000        -2.537591334993460E-011
   31.4844250000000        -2.707675499323938E-011
   31.5974750000000        -2.873821584161861E-011
   31.7105250000000        -3.035005727968512E-011
   31.8235750000000        -3.191279396097878E-011
   31.9366250000000        -3.343303545592222E-011
   32.0496750000000        -3.491917039215240E-011
   32.1627250000000        -3.638330716058400E-011
   32.2757750000000        -3.783816665645524E-011
   32.3888250000000        -3.929657710500716E-011
   32.5018750000000        -4.077233399868930E-011
   32.6149250000000        -4.227868426414043E-011
   32.7279750000000        -4.381327687428094E-011
   32.8410250000000        -4.538996445062954E-011
   32.9540750000000        -4.700128420992222E-011
   33.0671250000000        -4.864668683801398E-011
   33.1801750000000        -5.031894800852893E-011
   33.2932250000000        -5.199938352484711E-011
   33.4062750000000        -5.367699384958985E-011
   33.5193250000000        -5.533738420019963E-011
   33.6323750000000        -5.695520065372637E-011
   33.7454250000000        -5.851738228041593E-011
   33.8584750000000        -6.000346081918849E-011
   33.9715250000000        -6.139563527983878E-011
   34.0845750000000        -6.268329615969692E-011
   34.1976250000000        -6.385047686811462E-011
   34.3106750000000        -6.489358585122205E-011
   34.4237250000000        -6.580594415755597E-011
   34.5367750000000        -6.658695921684228E-011
   34.6498250000000        -6.723894530986829E-011
   34.7628750000000        -6.777032771700039E-011
   34.8759250000000        -6.818571812159462E-011
   34.9889750000000        -6.850182923383801E-011
   35.1020250000000        -6.872363207408562E-011
   35.2150750000000        -6.886804850313244E-011
   35.3281250000000        -6.894663311534940E-011
   35.4411750000000        -6.897080952379859E-011
   35.5542250000000        -6.894969220836520E-011
   35.6672750000000        -6.889524171476028E-011
   35.7803250000000        -6.881432365400769E-011
   35.8933750000000        -6.870824270872139E-011
   36.0064250000000        -6.858617894833264E-011
   36.1194750000000        -6.844822458107568E-011
   36.2325250000000        -6.829631803026494E-011
   36.3455750000000        -6.813062895774721E-011
   36.4586250000000        -6.795539946085183E-011
   36.5716750000000        -6.777322254898843E-011
   36.6847250000000        -6.759003248118812E-011
   36.7977750000000        -6.740767848005941E-011
   36.9108250000000        -6.723617164497225E-011
   37.0238750000000        -6.708974205769633E-011
   37.1369250000000        -6.698442056975114E-011
   37.2499750000000        -6.693422265993895E-011
   37.3630250000000        -6.696189471483570E-011
   37.4760750000000        -6.708708269175107E-011
   37.5891250000000        -6.733804386781225E-011
   37.7021750000000        -6.773655895489506E-011
   37.8152250000000        -6.830550937187141E-011
   37.9282750000000        -6.906739949807488E-011
   38.0413250000000        -7.004640526005678E-011
   38.1543750000000        -7.125433984807905E-011
   38.2674250000000        -7.270496048205897E-011
   38.3804750000000        -7.440346836252471E-011
   38.4935250000000        -7.635002460552292E-011
   38.6065750000000        -7.853887267464775E-011
   38.7196250000000        -8.095466749556921E-011
   38.8326750000000        -8.357464872714676E-011
   38.9457250000000        -8.637074383836464E-011
   39.0587750000000        -8.930713243301898E-011
   39.1718250000000        -9.233913950151305E-011
   39.2848750000000        -9.542078685176732E-011
   39.3979250000000        -9.849918904433988E-011
   39.5109750000000        -1.015175665955544E-010
   39.6240250000000        -1.044186386353866E-010
   39.7370750000000        -1.071450752118363E-010
   39.8501250000000        -1.096397364910786E-010
   39.9631750000000        -1.118486735924793E-010
   40.0762250000000        -1.137233267608581E-010
   40.1892750000000        -1.152193185690252E-010
   40.3023250000000        -1.162985459937084E-010
   40.4153750000000        -1.169354055628706E-010
   40.5284250000000        -1.171063445214170E-010
   40.6414750000000        -1.168026022592245E-010
   40.7545250000000        -1.160222927299603E-010
   40.8675750000000        -1.147789506675396E-010
   40.9806250000000        -1.130874970357913E-010
   41.0936750000000        -1.109808041672938E-010
   41.2067250000000        -1.084960570228836E-010
   41.3197750000000        -1.056780368829162E-010
   41.4328250000000        -1.025828837614786E-010
   41.5458750000000        -9.926615104084762E-011
   41.6589250000000        -9.579099767905536E-011
   41.7719750000000        -9.222255864720328E-011
   41.8850250000000        -8.862651803734082E-011
   41.9980750000000        -8.506492502918494E-011
   42.1111250000000        -8.160408010615362E-011
   42.2241750000000        -7.830181722175912E-011
   42.3372250000000        -7.521216576647038E-011
   42.4502750000000        -7.238126307984542E-011
   42.5633250000000        -6.984830463916856E-011
   42.6763750000000        -6.764637123352348E-011
   42.7894250000000        -6.580508960100183E-011
   42.9024750000000        -6.433104600070132E-011
   43.0155250000000        -6.323332168314223E-011
   43.1285750000000        -6.251277873922801E-011
   43.2416250000000        -6.216098539712038E-011
   43.3546750000000        -6.216041822579013E-011
   43.4677250000000        -6.249231810933301E-011
   43.5807750000000        -6.312506328528047E-011
   43.6938250000000        -6.403402275619633E-011
   43.8068750000000        -6.518534567824905E-011
   43.9199250000000        -6.654702183894386E-011
   44.0329750000000        -6.807924452950976E-011
   44.1460250000000        -6.974956262845345E-011
   44.2590750000000        -7.152530136308827E-011
   44.3721250000000        -7.338734433030023E-011
   44.4851750000000        -7.528773426333784E-011
   44.5982250000000        -7.721123288800121E-011
   44.7112750000000        -7.913737515198946E-011
   44.8243250000000        -8.104091423192033E-011
   44.9373750000000        -8.290390702903849E-011
   45.0504250000000        -8.471041739809425E-011
   45.1634750000000        -8.644502000902052E-011
   45.2765250000000        -8.809563350460894E-011
   45.3895750000000        -8.964744480100519E-011
   45.5026250000000        -9.108550685819877E-011
   45.6156750000000        -9.239662186794277E-011
   45.7287250000000        -9.356786825216428E-011
   45.8417750000000        -9.458111136035870E-011
   45.9548250000000        -9.542284029640826E-011
   46.0678750000000        -9.607786401294370E-011
   46.1809250000000        -9.653659793052812E-011
   46.2939750000000        -9.677600523951686E-011
   46.4070250000000        -9.678442057967653E-011
   46.5200750000000        -9.656202133565256E-011
   46.6331250000000        -9.609370957537784E-011
   46.7461750000000        -9.537929078705098E-011
   46.8592250000000        -9.442577095162045E-011
   46.9722750000000        -9.324045301382723E-011
   47.0853250000000        -9.183671790510413E-011
   47.1983750000000        -9.024125238380249E-011
   47.3114250000000        -8.847919954170450E-011
   47.4244750000000        -8.658939147614178E-011
   47.5375250000000        -8.460908943444892E-011
   47.6505750000000        -8.258703513560750E-011
   47.7636250000000        -8.057112276021859E-011
   47.8766750000000        -7.861408315189003E-011
   47.9897250000000        -7.677051596780327E-011
   48.1027750000000        -7.510072378608322E-011
   48.2158250000000        -7.364588386511529E-011
   48.3288750000000        -7.246350940835070E-011
   48.4419250000000        -7.159199628215461E-011
   48.5549750000000        -7.106947962954683E-011
   48.6680250000000        -7.092267151447350E-011
   48.7810750000000        -7.117111636180787E-011
   48.8941250000000        -7.182720781841548E-011
   49.0071750000000        -7.288756094289564E-011
   49.1202250000000        -7.434050392003401E-011
   49.2332750000000        -7.616926588067503E-011
   49.3463250000000        -7.834062267547444E-011
   49.4593750000000        -8.081909587228119E-011
   49.5724250000000        -8.356051748490898E-011
   49.6854750000000        -8.651259058914361E-011
   49.7985250000000        -8.962197301072347E-011
   49.9115750000000        -9.283691951529705E-011
   50.0246250000000        -9.609906117408833E-011
   50.1376750000000        -9.935770052608904E-011
   50.2507250000000        -1.025640200866876E-010
   50.3637750000000        -1.056719734491928E-010
   50.4768250000000        -1.086449448554557E-010
   50.5898750000000        -1.114567684460444E-010
   50.7029250000000        -1.140785126907028E-010
   50.8159750000000        -1.165064642311686E-010
   50.9290250000000        -1.187308787079014E-010
   51.0420750000000        -1.207572771142287E-010
   51.1551250000000        -1.225956906621306E-010
   51.2681750000000        -1.242681991830490E-010
   51.3812250000000        -1.257932474311518E-010
   51.4942750000000        -1.272029825904839E-010
   51.6073250000000        -1.285239048655937E-010
   51.7203750000000        -1.297916620878293E-010
   51.8334250000000        -1.310271969449352E-010
   51.9464750000000        -1.322638753447589E-010
   52.0595250000000        -1.335209579986251E-010
   52.1725750000000        -1.348204021853372E-010
   52.2856250000000        -1.361690638641399E-010
   52.3986750000000        -1.375744268128658E-010
   52.5117250000000        -1.390330103893452E-010
   52.6247750000000        -1.405384168742469E-010
   52.7378250000000        -1.420680714971979E-010
   52.8508750000000        -1.436038549646640E-010
   52.9639250000000        -1.451169756272195E-010
   53.0769750000000        -1.465763823002365E-010
   53.1900250000000        -1.479445730232392E-010
   53.3030750000000        -1.491865528743629E-010
   53.4161250000000        -1.502712817731595E-010
   53.5291750000000        -1.511579826492383E-010
   53.6422250000000        -1.518239648010719E-010
   53.7552750000000        -1.522428038701049E-010
   53.8683250000000        -1.523954664037898E-010
   53.9813750000000        -1.522758296992334E-010
   54.0944250000000        -1.518748721034911E-010
   54.2074750000000        -1.512029933222520E-010
   54.3205250000000        -1.502795108412319E-010
   54.4335750000000        -1.491173403373361E-010
   54.5466250000000        -1.477540632601811E-010
   54.6596750000000        -1.462292974828155E-010
   54.7727250000000        -1.445809029707612E-010
   54.8857750000000        -1.428587459753504E-010
   54.9988250000000        -1.411103909726847E-010
   55.1118750000000        -1.393860653259066E-010
   55.2249250000000        -1.377316227933627E-010
   55.3379750000000        -1.361931611972524E-010
   55.4510250000000        -1.348108828142162E-010
   55.5640750000000        -1.336192948683791E-010
   55.6771250000000        -1.326469884373199E-010
   55.7901750000000        -1.319052545711780E-010
   55.9032250000000        -1.314085032418930E-010
   56.0162750000000        -1.311579174991918E-010
   56.1293250000000        -1.311478745378924E-010
   56.2423750000000        -1.313670755263306E-010
   56.3554250000000        -1.317921766662786E-010
   56.4684750000000        -1.323953266717645E-010
   56.5815250000000        -1.331507082242409E-010
   56.6945750000000        -1.340257314385966E-010
   56.8076250000000        -1.349876706402390E-010
   56.9206750000000        -1.360058734767236E-010
   57.0337250000000        -1.370478025230747E-010
   57.1467750000000        -1.380950400340349E-010
   57.2598250000000        -1.391253745645771E-010
   57.3728750000000        -1.401222863359132E-010
   57.4859250000000        -1.410800219897902E-010
   57.5989750000000        -1.419946032486484E-010
   57.7120250000000        -1.428705074909853E-010
   57.8250750000000        -1.437148404209580E-010
   57.9381250000000        -1.445364280640792E-010
   58.0511750000000        -1.453522951013962E-010
   58.1642250000000        -1.461729471208286E-010
   58.2772750000000        -1.470143843375743E-010
   58.3903250000000        -1.478820810163569E-010
   58.5033750000000        -1.487896879373667E-010
   58.6164250000000        -1.497335405768126E-010
   58.7294750000000        -1.507122736790822E-010
   58.8425250000000        -1.517132195004805E-010
   58.9555750000000        -1.527199060209834E-010
   59.0686250000000        -1.537088370150911E-010
   59.1816750000000        -1.546490556648087E-010
   59.2947250000000        -1.555092855984125E-010
   59.4077750000000        -1.562524583930229E-010
   59.5208250000000        -1.568423682269521E-010
   59.6338750000000        -1.572436443571446E-010
   59.7469250000000        -1.574246881386704E-010
   59.8599750000000        -1.573586751422642E-010
   59.9730250000000        -1.570241481866367E-010
   60.0860750000000        -1.564158129304179E-010
   60.1991250000000        -1.555334271566124E-010
   60.3121750000000        -1.543890910514616E-010
   60.4252250000000        -1.530040625040385E-010
   60.5382750000000        -1.514167315623523E-010
   60.6513250000000        -1.496687563997902E-010
   60.7643750000000        -1.478095626480269E-010
   60.8774250000000        -1.459036088799245E-010
   60.9904750000000        -1.440060493145979E-010
   61.1035250000000        -1.421802992473053E-010
   61.2165750000000        -1.404797953888946E-010
   61.3296250000000        -1.389600006780884E-010
   61.4426750000000        -1.376646868676684E-010
   61.5557250000000        -1.366127103880140E-010
   61.6687750000000        -1.358302362376364E-010
   61.7818250000000        -1.353062623144687E-010
   61.8948750000000        -1.350341811976024E-010
   62.0079250000000        -1.349823921671032E-010
   62.1209750000000        -1.351057139974047E-010
   62.2340250000000        -1.353490639557513E-010
   62.3470750000000        -1.356520394391259E-010
   62.4601250000000        -1.359477726404855E-010
   62.5731750000000        -1.361794721298150E-010
   62.6862250000000        -1.362926314823823E-010
   62.7992750000000        -1.362496821872615E-010
   62.9123250000000        -1.360337825577390E-010
   63.0253750000000        -1.356508920782313E-010
   63.1384250000000        -1.351402296728390E-010
   63.2514750000000        -1.345661070919427E-010
   63.3645250000000        -1.340373167159840E-010
   63.4775750000000        -1.336895312210578E-010
   63.5906250000000        -1.336913018952996E-010
   63.7036750000000        -1.342366144108215E-010
   63.8167250000000        -1.355444964531945E-010
   63.9297750000000        -1.378388884937778E-010
   64.0428250000000        -1.413413253567752E-010
   64.1558750000000        -1.462688774703060E-010
   64.2689250000000        -1.528032666561892E-010
   64.3819750000000        -1.610825228685295E-010
   64.4950250000000        -1.711916928805484E-010
   64.6080750000000        -1.831411235632708E-010
   64.7211250000000        -1.968506625449214E-010
   64.8341750000000        -2.121476266383986E-010
   64.9472250000000        -2.287489234453712E-010
   65.0602750000000        -2.462619007995010E-010
   65.1733250000000        -2.641852112517806E-010
   65.2863750000000        -2.819102182387337E-010
   65.3994250000000        -2.987376360195160E-010
   65.5124750000000        -3.138856772186322E-010