 -0.847875000000000         1.777435458151700E-020
 -0.734825000000000         5.462610880630833E-020
 -0.621775000000000         1.151153342235396E-019
 -0.508725000000000         2.887026881317744E-019
 -0.395675000000000         8.067294500775220E-019
 -0.282625000000000         1.940940744439185E-018
 -0.169575000000000         3.028309326404849E-018
 -5.652500000000005E-002   -1.045895288420065E-018
  5.652499999999994E-002   -3.037838010773874E-017
  0.169575000000000        -1.370605515967701E-016
  0.282625000000000        -4.405627349859938E-016
  0.395675000000000        -1.167560339902716E-015
  0.508725000000000        -2.690622566403064E-015
  0.621775000000000        -5.593766788342855E-015
  0.734825000000000        -1.073340712945353E-014
  0.847875000000000        -1.924358200534981E-014
  0.960925000000000        -3.257388740525207E-014
   1.07397500000000        -5.255901214348109E-014
   1.18702500000000        -8.138911642539745E-014
   1.30007500000000        -1.215817146902241E-013
   1.41312500000000        -1.759704288436304E-013
   1.52617500000000        -2.476847795539576E-013
   1.63922500000000        -3.400356667270481E-013
   1.75227500000000        -4.565007828137037E-013
   1.86532500000000        -6.004405017803040E-013
   1.97837500000000        -7.750800607157507E-013
   2.09142500000000        -9.835131764559881E-013
   2.20447500000000        -1.228280183555444E-012
   2.31752500000000        -1.511392515580188E-012
   2.43057500000000        -1.834022533141379E-012
   2.54362500000000        -2.196323059190605E-012
   2.65667500000000        -2.597324779494758E-012
   2.76972500000000        -3.035000999986463E-012
   2.88277500000000        -3.505971363875870E-012
   2.99582500000000        -4.005470008952215E-012
   3.10887500000000        -4.527326314998565E-012
   3.22192500000000        -5.063972316371213E-012
   3.33497500000000        -5.606490131876001E-012
   3.44802500000000        -6.144889825757713E-012
   3.56107500000000        -6.668578036114266E-012
   3.67412500000000        -7.165659452967534E-012
   3.78717500000000        -7.623894125998444E-012
   3.90022500000000        -8.031353431280364E-012
   4.01327500000000        -8.375998033274784E-012
   4.12632500000000        -8.645940503851282E-012
   4.23937500000000        -8.830398739818215E-012
   4.35242500000000        -8.919968824553058E-012
   4.46547500000000        -8.906481523467362E-012
   4.57852500000000        -8.783544885239129E-012
   4.69157500000000        -8.546695670698456E-012
   4.80462500000000        -8.193570345357338E-012
   4.91767500000000        -7.724092176049223E-012
   5.03072500000000        -7.140204990659119E-012
   5.14377500000000        -6.446014057349457E-012
   5.25682500000000        -5.647585029326391E-012
   5.36987500000000        -4.752825858174936E-012
   5.48292500000000        -3.771388636695120E-012
   5.59597500000000        -2.713997692679633E-012
   5.70902500000000        -1.592461417119181E-012
   5.82207500000000        -4.189246556649163E-013
   5.93512500000000         7.941218136744404E-013
   6.04817500000000         2.034214003047662E-012
   6.16122500000000         3.289682645249681E-012
   6.27427500000000         4.549753451577894E-012
   6.38732500000000         5.804480604828507E-012
   6.50037500000000         7.044616257052005E-012
   6.61342500000000         8.263074343454788E-012
   6.72647500000000         9.454222009437706E-012
   6.83952500000000         1.061324283335878E-011
   6.95257500000000         1.173712386914281E-011
   7.06562500000000         1.282415669122739E-011
   7.17867500000000         1.387362858080096E-011
   7.29172500000000         1.488579196573711E-011
   7.40477500000000         1.586144652384722E-011
   7.51782500000000         1.680161544000501E-011
   7.63087500000000         1.770735322528451E-011
   7.74392500000000         1.857991383082938E-011
   7.85697500000000         1.942029935253029E-011
   7.97002500000000         2.022876635584208E-011
   8.08307500000000         2.100510175859398E-011
   8.19612500000000         2.174815688978610E-011
   8.30917500000000         2.245582327132142E-011
   8.42222500000000         2.312568434831044E-011
   8.53527500000000         2.375440578495329E-011
   8.64832500000000         2.433810928868767E-011
   8.76137500000000         2.487281702906064E-011
   8.87442500000000         2.535411689458785E-011
   8.98747500000000         2.577777315932608E-011
   9.10052500000000         2.613973282414714E-011
   9.21357500000000         2.643653803489658E-011
   9.32662500000000         2.666548549049456E-011
   9.43967500000000         2.682462323471448E-011
   9.55272500000000         2.691322143178865E-011
   9.66577500000000         2.693176371019755E-011
   9.77882500000000         2.688200758091919E-011
   9.89187500000000         2.676695667334276E-011
   10.0049250000000         2.659082938994125E-011
   10.1179750000000         2.635921661423803E-011
   10.2310250000000         2.607876188371888E-011
   10.3440750000000         2.575723625713000E-011
   10.4571250000000         2.540331859128005E-011
   10.5701750000000         2.502614137273514E-011
   10.6832250000000         2.463568772710162E-011
   10.7962750000000         2.424220731325868E-011
   10.9093250000000         2.385595655196281E-011
   11.0223750000000         2.348734535445828E-011
   11.1354250000000         2.314667514805685E-011
   11.2484750000000         2.284369838621551E-011
   11.3615250000000         2.258760897545616E-011
   11.4745750000000         2.238722599037103E-011
   11.5876250000000         2.225057649267906E-011
   11.7006750000000         2.218488399636518E-011
   11.8137250000000         2.219620120843910E-011
   11.9267750000000         2.228953883233360E-011
   12.0398250000000         2.246885751378505E-011
   12.1528750000000         2.273673897653319E-011
   12.2659250000000         2.309463054814214E-011
   12.3789750000000         2.354246517003628E-011
   12.4920250000000         2.407876347772340E-011
   12.6050750000000         2.470050102717861E-011
   12.7181250000000         2.540325577539629E-011
   12.8311750000000         2.618084383653001E-011
   12.9442250000000         2.702518120728531E-011
   13.0572750000000         2.792688373507839E-011
   13.1703250000000         2.887519992556573E-011
   13.2833750000000         2.985820436716904E-011
   13.3964250000000         3.086250825828970E-011
   13.5094750000000         3.187378074983835E-011
   13.6225250000000         3.287705116731602E-011
   13.7355750000000         3.385660388583671E-011
   13.8486250000000         3.479693184041606E-011
   13.9616750000000         3.568265572758519E-011
   14.0747250000000         3.649858677771298E-011
   14.1877750000000         3.723090219399870E-011
   14.3008250000000         3.786705404925390E-011
   14.4138750000000         3.839605286278517E-011
   14.5269250000000         3.880850080264033E-011
   14.6399750000000         3.909738857518558E-011
   14.7530250000000         3.925822740790613E-011
   14.8660750000000         3.928846495686945E-011
   14.9791250000000         3.918846982916432E-011
   15.0921750000000         3.896083726634591E-011
   15.2052250000000         3.861027596737827E-011
   15.3182750000000         3.814385993419645E-011
   15.4313250000000         3.757062787233843E-011
   15.5443750000000         3.690105528316626E-011
   15.6574250000000         3.614677668100929E-011
   15.7704750000000         3.532044558198251E-011
   15.8835250000000         3.443523445158172E-011
   15.9965750000000         3.350446781044553E-011
   16.1096250000000         3.254140308720384E-011
   16.2226750000000         3.155870681579038E-011
   16.3357250000000         3.056822772219711E-011
   16.4487750000000         2.958112011996256E-011
   16.5618250000000         2.860763523148366E-011
   16.6748750000000         2.765664524366959E-011
   16.7879250000000         2.673580474438956E-011
   16.9009750000000         2.585208213096630E-011
   17.0140250000000         2.501167618717997E-011
   17.1270750000000         2.421984667460027E-011
   17.2401250000000         2.348083415660971E-011
   17.3531750000000         2.279907712386208E-011
   17.4662250000000         2.217854922686375E-011
   17.5792750000000         2.162292201376663E-011
   17.6923250000000         2.113597823624832E-011
   17.8053750000000         2.072101779997771E-011
   17.9184250000000         2.038177031898455E-011
   18.0314750000000         2.012202916914365E-011
   18.1445250000000         1.994508940492869E-011
   18.2575750000000         1.985391817893051E-011
   18.3706250000000         1.985084130221610E-011
   18.4836750000000         1.993750627801042E-011
   18.5967250000000         2.011452768244138E-011
   18.7097750000000         2.038096048757670E-011
   18.8228250000000         2.073435052230432E-011
   18.9358750000000         2.117043931089750E-011
   19.0489250000000         2.168306305014712E-011
   19.1619750000000         2.226399547496230E-011
   19.2750250000000         2.290326832155738E-011
   19.3880750000000         2.358885128577589E-011
   19.5011250000000         2.430670618092378E-011
   19.6141750000000         2.504154268187049E-011
   19.7272250000000         2.577678999887431E-011
   19.8402750000000         2.649548216650561E-011
   19.9533250000000         2.718061023675726E-011
   20.0663750000000         2.781476579206900E-011
   20.1794250000000         2.838135035901717E-011
   20.2924750000000         2.886540920761116E-011
   20.4055250000000         2.925363064375987E-011
   20.5185750000000         2.953479081659614E-011
   20.6316250000000         2.970007919059253E-011
   20.7446750000000         2.974360222050138E-011
   20.8577250000000         2.966258333087645E-011
   20.9707750000000         2.945722137662302E-011
   21.0838250000000         2.913064301227543E-011
   21.1968750000000         2.868869039233707E-011
   21.3099250000000         2.814032692026014E-011
   21.4229750000000         2.749674717576156E-011
   21.5360250000000         2.677064404257559E-011
   21.6490750000000         2.597661680129954E-011
   21.7621250000000         2.513030610972389E-011
   21.8751750000000         2.424795403061177E-011
   21.9882250000000         2.334591910626828E-011
   22.1012750000000         2.244030899992462E-011
   22.2143250000000         2.154661246727659E-011
   22.3273750000000         2.067915407168557E-011
   22.4404250000000         1.985097091520937E-011
   22.5534750000000         1.907359900156295E-011
   22.6665250000000         1.835709322832881E-011
   22.7795750000000         1.770968718725909E-011
   22.8926250000000         1.713812373998324E-011
   23.0056750000000         1.664746086820244E-011
   23.1187250000000         1.624125008907778E-011
   23.2317750000000         1.592183222009537E-011
   23.3448250000000         1.569010329052402E-011
   23.4578750000000         1.554600415614183E-011
   23.5709250000000         1.548856830078893E-011
   23.6839750000000         1.551580682235748E-011
   23.7970250000000         1.562506530368519E-011
   23.9100750000000         1.581303103435874E-011
   24.0231250000000         1.607557291183718E-011
   24.1361750000000         1.640821119995008E-011
   24.2492250000000         1.680565717827538E-011
   24.3622750000000         1.726179822780064E-011
   24.4753250000000         1.776980104225706E-011
   24.5883750000000         1.832186168046956E-011
   24.7014250000000         1.890917201061831E-011
   24.8144750000000         1.952205495246087E-011
   24.9275250000000         2.014997521707160E-011
   25.0405750000000         2.078139823398566E-011
   25.1536250000000         2.140413329452319E-011
   25.2666750000000         2.200532135398898E-011
   25.3797250000000         2.257175413263511E-011
   25.4927750000000         2.308986354337490E-011
   25.6058250000000         2.354604480050345E-011
   25.7188750000000         2.392725363118079E-011
   25.8319250000000         2.422130981717098E-011
   25.9449750000000         2.441674135488452E-011
   26.0580250000000         2.450346197881186E-011
   26.1710750000000         2.447321704615388E-011
   26.2841250000000         2.431923239108038E-011
   26.3971750000000         2.403690442477771E-011
   26.5102250000000         2.362394784559005E-011
   26.6232750000000         2.308014539754674E-011
   26.7363250000000         2.240730310462250E-011
   26.8493750000000         2.160980715991796E-011
   26.9624250000000         2.069396766179074E-011
   27.0754750000000         1.966769961812480E-011
   27.1885250000000         1.854054934577090E-011
   27.3015750000000         1.732325248727263E-011
   27.4146250000000         1.602791723828876E-011
   27.5276750000000         1.466735948629618E-011
   27.6407250000000         1.325455981330982E-011
   27.7537750000000         1.180237911203266E-011
   27.8668250000000         1.032347091863904E-011
   27.9798750000000         8.830296831276627E-012
   28.0929250000000         7.334334842230677E-012
   28.2059750000000         5.846287489598910E-012
   28.3190250000000         4.375820396831700E-012
   28.4320750000000         2.931419042977257E-012
   28.5451250000000         1.520441164751857E-012
   28.6581750000000         1.490116011512639E-013
   28.7712250000000        -1.177744287088918E-012
   28.8842750000000        -2.455928727731391E-012
   28.9973250000000        -3.682904437622249E-012
   29.1103750000000        -4.856899584098167E-012
   29.2234250000000        -5.976905750235283E-012
   29.3364750000000        -7.042752796091476E-012
   29.4495250000000        -8.055258852094566E-012
   29.5625750000000        -9.016097779099118E-012
   29.6756250000000        -9.927521965468524E-012
   29.7886750000000        -1.079239614010810E-011
   29.9017250000000        -1.161421432360710E-011
   30.0147750000000        -1.239731888552937E-011
   30.1278250000000        -1.314633266636620E-011
   30.2408750000000        -1.386638955112789E-011
   30.3539250000000        -1.456331258939401E-011
   30.4669750000000        -1.524327288766933E-011
   30.5800250000000        -1.591274667446392E-011
   30.6930750000000        -1.657850236292744E-011
   30.8061250000000        -1.724755313845146E-011
   30.9191750000000        -1.792701356381524E-011
   31.0322250000000        -1.862389320884454E-011
   31.1452750000000        -1.934490961133752E-011
   31.2583250000000        -2.009654694253334E-011
   31.3713750000000        -2.088477251254893E-011
   31.4844250000000        -2.171479398875435E-011
   31.5974750000000        -2.259128335964381E-011
   31.7105250000000        -2.351818840531383E-011
   31.8235750000000        -2.449848849889721E-011
   31.9366250000000        -2.553407166407400E-011
   32.0496750000000        -2.662581688222216E-011
   32.1627250000000        -2.777371413284461E-011
   32.2757750000000        -2.897680395122692E-011
   32.3888250000000        -3.023330743828417E-011
   32.5018750000000        -3.154066318285172E-011
   32.6149250000000        -3.289572175802509E-011
   32.7279750000000        -3.429459099443505E-011
   32.8410250000000        -3.573301438394948E-011
   32.9540750000000        -3.720636557102004E-011
   33.0671250000000        -3.870954687360568E-011
   33.1801750000000        -4.023792677117532E-011
   33.2932250000000        -4.178697099837743E-011
   33.4062750000000        -4.335180765097743E-011
   33.5193250000000        -4.492803884615839E-011
   33.6323750000000        -4.651180822926029E-011
   33.7454250000000        -4.809933100931013E-011
   33.8584750000000        -4.968723204287864E-011
   33.9715250000000        -5.127270644388214E-011
   34.0845750000000        -5.285331280082583E-011
   34.1976250000000        -5.442699688375814E-011
   34.3106750000000        -5.599194787736600E-011
   34.4237250000000        -5.754706654362975E-011
   34.5367750000000        -5.909145094354930E-011
   34.6498250000000        -6.062438973713323E-011
   34.7628750000000        -6.214558132300648E-011
   34.8759250000000        -6.365470118227004E-011
   34.9889750000000        -6.515161991353508E-011
   35.1020250000000        -6.663646880874575E-011
   35.2150750000000        -6.810908276690718E-011
   35.3281250000000        -6.956932364705857E-011
   35.4411750000000        -7.101719773131841E-011
   35.5542250000000        -7.245222748290845E-011
   35.6672750000000        -7.387377118050465E-011
   35.7803250000000        -7.528085774741610E-011
   35.8933750000000        -7.667195714504952E-011
   36.0064250000000        -7.804529707653289E-011
   36.1194750000000        -7.939888234962211E-011
   36.2325250000000        -8.073006027431633E-011
   36.3455750000000        -8.203562265246398E-011
   36.4586250000000        -8.331244153274747E-011
   36.5716750000000        -8.455753500442499E-011
   36.6847250000000        -8.576774097515027E-011
   36.7977750000000        -8.694013818736493E-011
   36.9108250000000        -8.807222256750748E-011
   37.0238750000000        -8.916241859342201E-011
   37.1369250000000        -9.021031615880670E-011
   37.2499750000000        -9.121661565481940E-011
   37.3630250000000        -9.218382148124469E-011
   37.4760750000000        -9.311633520242184E-011
   37.5891250000000        -9.402034552354753E-011
   37.7021750000000        -9.490440705449795E-011
   37.8152250000000        -9.577906670675978E-011
   37.9282750000000        -9.665666843836527E-011
   38.0413250000000        -9.755182747628910E-011
   38.1543750000000        -9.848093258241863E-011
   38.2674250000000        -9.946132742004952E-011
   38.3804750000000        -1.005111267483633E-010
   38.4935250000000        -1.016487393438585E-010
   38.6065750000000        -1.028920358756969E-010
   38.7196250000000        -1.042578243328213E-010
   38.8326750000000        -1.057610424252405E-010
   38.9457250000000        -1.074138782761576E-010
   39.0587750000000        -1.092253769129743E-010
   39.1718250000000        -1.112007409507610E-010
   39.2848750000000        -1.133406952693626E-010
   39.3979250000000        -1.156413679099987E-010
   39.5109750000000        -1.180939280890809E-010
   39.6240250000000        -1.206845333670530E-010
   39.7370750000000        -1.233946187389216E-010
   39.8501250000000        -1.262012017208015E-010
   39.9631750000000        -1.290774053337724E-010
   40.0762250000000        -1.319933142653644E-010
   40.1892750000000        -1.349168194976520E-010
   40.3023250000000        -1.378144944385796E-010
   40.4153750000000        -1.406527955471592E-010
   40.5284250000000        -1.433993261791625E-010
   40.6414750000000        -1.460238364829673E-010
   40.7545250000000        -1.484993518926042E-010
   40.8675750000000        -1.508030554944548E-010
   40.9806250000000        -1.529175086203369E-010
   41.0936750000000        -1.548311054792770E-010
   41.2067250000000        -1.565383346810752E-010
   41.3197750000000        -1.580409677611954E-010
   41.4328250000000        -1.593471926096203E-010
   41.5458750000000        -1.604714209154029E-010
   41.6589250000000        -1.614344892236830E-010
   41.7719750000000        -1.622626632710500E-010
   41.8850250000000        -1.629867206091109E-010
   41.9980750000000        -1.636408365709437E-010
   42.1111250000000        -1.642620285664422E-010
   42.2241750000000        -1.648887126886270E-010
   42.3372250000000        -1.655592094892627E-010
   42.4502750000000        -1.663108820788059E-010
   42.5633250000000        -1.671790065395485E-010
   42.6763750000000        -1.681958728007626E-010
   42.7894250000000        -1.693900649345662E-010
   42.9024750000000        -1.707855647815803E-010
   43.0155250000000        -1.724011888059580E-010
   43.1285750000000        -1.742505163114222E-010
   43.2416250000000        -1.763419460970332E-010
   43.3546750000000        -1.786785084350407E-010
   43.4677250000000        -1.812581599701656E-010
   43.5807750000000        -1.840747343593291E-010
   43.6938250000000        -1.871176932518147E-010
   43.8068750000000        -1.903730347995560E-010
   43.9199250000000        -1.938244947895452E-010
   44.0329750000000        -1.974533613435784E-010
   44.1460250000000        -2.012390629693887E-010
   44.2590750000000        -2.051606140782985E-010
   44.3721250000000        -2.091970644172252E-010
   44.4851750000000        -2.133266661211504E-010
   44.5982250000000        -2.175280924268441E-010
   44.7112750000000        -2.217814671384879E-010
   44.8243250000000        -2.260672901194898E-010
   44.9373750000000        -2.303665107802458E-010
   45.0504250000000        -2.346610660674373E-010
   45.1634750000000        -2.389336646049858E-010
   45.2765250000000        -2.431677509022752E-010
   45.3895750000000        -2.473474946392193E-010
   45.5026250000000        -2.514577430051602E-010
   45.6156750000000        -2.554835881807082E-010
   45.7287250000000        -2.594105209380684E-010
   45.8417750000000        -2.632246748288554E-010
   45.9548250000000        -2.669134063392566E-010
   46.0678750000000        -2.704647703994259E-010
   46.1809250000000        -2.738675219761520E-010
   46.2939750000000        -2.771124218578420E-010
   46.4070250000000        -2.801920771025998E-010
   46.5200750000000        -2.831008723506147E-010
   46.6331250000000        -2.858355521982525E-010
   46.7461750000000        -2.883959512324797E-010
   46.8592250000000        -2.907845638322522E-010
   46.9722750000000        -2.930066862778462E-010
   47.0853250000000        -2.950708097767384E-010
   47.1983750000000        -2.969885121190550E-010
   47.3114250000000        -2.987740165739141E-010
   47.4244750000000        -3.004443587993035E-010
   47.5375250000000        -3.020190087737562E-010
   47.6505750000000        -3.035189683307883E-010
   47.7636250000000        -3.049669736952094E-010
   47.8766750000000        -3.063867983045909E-010
   47.9897250000000        -3.078026815946179E-010
   48.1027750000000        -3.092386701498633E-010
   48.2158250000000        -3.107179156509002E-010
   48.3288750000000        -3.122627802558486E-010
   48.4419250000000        -3.138940602113825E-010
   48.5549750000000        -3.156306438979872E-010
   48.6680250000000        -3.174893474592571E-010
   48.7810750000000        -3.194848481234596E-010
   48.8941250000000        -3.216294123190327E-010
   49.0071750000000        -3.239328231685537E-010
   49.1202250000000        -3.264022741926394E-010
   49.2332750000000        -3.290429232222210E-010
   49.3463250000000        -3.318579081195828E-010
   49.4593750000000        -3.348473925454761E-010
   49.5724250000000        -3.380103535131796E-010
   49.6854750000000        -3.413441785643686E-010
   49.7985250000000        -3.448439894248166E-010
   49.9115750000000        -3.485037968413082E-010
   50.0246250000000        -3.523159108875613E-010
   50.1376750000000        -3.562716409320289E-010
   50.2507250000000        -3.603606284710178E-010
   50.3637750000000        -3.645711364230951E-010
   50.4768250000000        -3.688905507585575E-010
   50.5898750000000        -3.733046030567615E-010
   50.7029250000000        -3.777981541223207E-010
   50.8159750000000        -3.823550218169323E-010
   50.9290250000000        -3.869578941885420E-010
   51.0420750000000        -3.915885780504109E-010
   51.1551250000000        -3.962284488053564E-010
   51.2681750000000        -4.008588570112510E-010
   51.3812250000000        -4.054613879061106E-010
   51.4942750000000        -4.100181275386399E-010
   51.6073250000000        -4.145120064580295E-010
   51.7203750000000        -4.189271946167779E-010
   51.8334250000000        -4.232500591983976E-010
   51.9464750000000        -4.274694560169140E-010
   52.0595250000000        -4.315769901655363E-010
   52.1725750000000        -4.355669853405773E-010
   52.2856250000000        -4.394368381928497E-010
   52.3986750000000        -4.431876005240445E-010
   52.5117250000000        -4.468233834369976E-010
   52.6247750000000        -4.503516891318619E-010
   52.7378250000000        -4.537828697418351E-010
   52.8508750000000        -4.571295349347600E-010
   52.9639250000000        -4.604065256242122E-010
   53.0769750000000        -4.636298645379828E-010
   53.1900250000000        -4.668163161594261E-010
   53.3030750000000        -4.699828957802645E-010
   53.4161250000000        -4.731457868228117E-010
   53.5291750000000        -4.763197533872669E-010
   53.6422250000000        -4.795177473403242E-010
   53.7552750000000        -4.827503806759702E-010
   53.8683250000000        -4.860257383588021E-010
   53.9813750000000        -4.893487840586988E-010
   54.0944250000000        -4.927213227650265E-010
   54.2074750000000        -4.961423343278216E-010
   54.3205250000000        -4.996085184862486E-010
   54.4335750000000        -5.031141713274710E-010
   54.5466250000000        -5.066518883234537E-010
   54.6596750000000        -5.102137837292155E-010
   54.7727250000000        -5.137915439232140E-010
   54.8857750000000        -5.173773284552749E-010
   54.9988250000000        -5.209649011708702E-010
   55.1118750000000        -5.245503041134932E-010
   55.2249250000000        -5.281323917142033E-010
   55.3379750000000        -5.317133419892192E-010
   55.4510250000000        -5.352988228932656E-010
   55.5640750000000        -5.388985616934939E-010
   55.6771250000000        -5.425261571555158E-010
   55.7901750000000        -5.461986496610718E-010
   55.9032250000000        -5.499363775795584E-010
   56.0162750000000        -5.537623527941225E-010
   56.1293250000000        -5.577012353843098E-010
   56.2423750000000        -5.617782304872333E-010
   56.3554250000000        -5.660180534618519E-010
   56.4684750000000        -5.704436999295787E-010
   56.5815250000000        -5.750756491611688E-010
   56.6945750000000        -5.799305353631912E-010
   56.8076250000000        -5.850196889233069E-010
   56.9206750000000        -5.903484129011819E-010
   57.0337250000000        -5.959151576264609E-010
   57.1467750000000        -6.017114068759741E-010
   57.2598250000000        -6.077207652325165E-010
   57.3728750000000        -6.139187369517865E-010
   57.4859250000000        -6.202736786764603E-010
   57.5989750000000        -6.267471227509932E-010
   57.7120250000000        -6.332944724528432E-010
   57.8250750000000        -6.398657134262682E-010
   57.9381250000000        -6.464072475514180E-010
   58.0511750000000        -6.528635811197325E-010
   58.1642250000000        -6.591788198107179E-010
   58.2772750000000        -6.652984663680919E-010
   58.3903250000000        -6.711711736103803E-010
   58.5033750000000        -6.767506651445337E-010
   58.6164250000000        -6.819975688923517E-010
   58.7294750000000        -6.868810102307251E-010
   58.8425250000000        -6.913803119296866E-010
   58.9555750000000        -6.954859081065423E-010
   59.0686250000000        -6.991999166174873E-010
   59.1816750000000        -7.025372796582987E-010
   59.2947250000000        -7.055254195244557E-010
   59.4077750000000        -7.082037170356823E-010
   59.5208250000000        -7.106233826310705E-010
   59.6338750000000        -7.128461311361422E-010
   59.7469250000000        -7.149424056772628E-010
   59.8599750000000        -7.169895433317810E-010
   59.9730250000000        -7.190692578107637E-010
   60.0860750000000        -7.212653670345331E-010
   60.1991250000000        -7.236610165801021E-010
   60.3121750000000        -7.263357872241472E-010
   60.4252250000000        -7.293628896192042E-010
   60.5382750000000        -7.328056301805280E-010
   60.6513250000000        -7.367152689034209E-010
   60.7643750000000        -7.411292962333454E-010
   60.8774250000000        -7.460682186270339E-010
   60.9904750000000        -7.515341757436418E-010
   61.1035250000000        -7.575105664486606E-010
   61.2165750000000        -7.639612679809833E-010
   61.3296250000000        -7.708307844991851E-010
   61.4426750000000        -7.780457259807977E-010
   61.5557250000000        -7.855160668965240E-010
   61.6687750000000        -7.931378441316132E-010
   61.7818250000000        -8.007967795930699E-010
   61.8948750000000        -8.083713557654814E-010
   62.0079250000000        -8.157372648306956E-010
   62.1209750000000        -8.227724389145197E-010
   62.2340250000000        -8.293613303983638E-010
   62.3470750000000        -8.353998950262754E-010
   62.4601250000000        -8.408011829435141E-010
   62.5731750000000        -8.454990122168740E-010
   62.6862250000000        -8.494523023874137E-010
   62.7992750000000        -8.526486700905437E-010
   62.9123250000000        -8.551062559580969E-010
   63.0253750000000        -8.568756155256561E-010
   63.1384250000000        -8.580398891709228E-010
   63.2514750000000        -8.587137865845322E-010
   63.3645250000000        -8.590412083194207E-010
   63.4775750000000        -8.591920587900122E-010
   63.5906250000000        -8.593572374259438E-010
   63.7036750000000        -8.597425204916086E-010
   63.8167250000000        -8.605622262492639E-010
   63.9297750000000        -8.620311849814905E-010
   64.0428250000000        -8.643565480738621E-010
   64.1558750000000        -8.677295981084606E-010
   64.2689250000000        -8.723174851352670E-010
   64.3819750000000        -8.782546945418728E-010
   64.4950250000000        -8.856362993532287E-010
   64.6080750000000        -8.945118945323261E-010
   64.7211250000000        -9.048803980066270E-010
   64.8341750000000        -9.166870875683019E-010
   64.9472250000000        -9.298222395042030E-010
   65.0602750000000        -9.441220319374069E-010
   65.1733250000000        -9.593710993724186E-010
   65.2863750000000        -9.753072370628894E-010
   65.3994250000000        -9.916284823377668E-010
   65.5124750000000        -1.008002047426018E-009