 -0.847875000000000        -1.591366083372299E-019
 -0.734825000000000         3.017705347192686E-019
 -0.621775000000000         3.483396150873929E-018
 -0.508725000000000         1.920871870218377E-017
 -0.395675000000000         8.183156748963210E-017
 -0.282625000000000         2.935904121028806E-016
 -0.169575000000000         9.082802326792185E-016
 -5.652500000000005E-002    2.472143949638733E-015
  5.652499999999994E-002    6.033504227743523E-015
  0.169575000000000         1.332905679206380E-014
  0.282625000000000         2.711245477018200E-014
  0.395675000000000         5.122702115726444E-014
  0.508725000000000         9.074976210095094E-014
  0.621775000000000         1.521668195322204E-013
  0.734825000000000         2.430013139895373E-013
  0.847875000000000         3.725907180246569E-013
  0.960925000000000         5.494108141046582E-013
   1.07397500000000         7.843127370177988E-013
   1.18702500000000         1.087688664908156E-012
   1.30007500000000         1.470165497810733E-012
   1.41312500000000         1.941729786712053E-012
   1.52617500000000         2.512358781102149E-012
   1.63922500000000         3.188965196012748E-012
   1.75227500000000         3.979573349917345E-012
   1.86532500000000         4.888590451796729E-012
   1.97837500000000         5.920459835924450E-012
   2.09142500000000         7.074320032271463E-012
   2.20447500000000         8.349744216757337E-012
   2.31752500000000         9.738992238897134E-012
   2.43057500000000         1.123952150966036E-011
   2.54362500000000         1.283551299476945E-011
   2.65667500000000         1.451818289892945E-011
   2.76972500000000         1.626924796947067E-011
   2.88277500000000         1.807473043937318E-011
   2.99582500000000         1.990939341819916E-011
   3.10887500000000         2.176018081295081E-011
   3.22192500000000         2.359810084020434E-011
   3.33497500000000         2.540754795936798E-011
   3.44802500000000         2.716351419043394E-011
   3.56107500000000         2.884498594932546E-011
   3.67412500000000         3.043239490506929E-011
   3.78717500000000         3.191145132622609E-011
   3.90022500000000         3.326514474341975E-011
   4.01327500000000         3.448415680213596E-011
   4.12632500000000         3.555663642895488E-011
   4.23937500000000         3.647732611392870E-011
   4.35242500000000         3.724777356663389E-011
   4.46547500000000         3.786854978741268E-011
   4.57852500000000         3.834229367277034E-011
   4.69157500000000         3.867970958189197E-011
   4.80462500000000         3.888729662986533E-011
   4.91767500000000         3.897711427178572E-011
   5.03072500000000         3.896549990865361E-011
   5.14377500000000         3.887000546628910E-011
   5.25682500000000         3.869973820608487E-011
   5.36987500000000         3.846528463012191E-011
   5.48292500000000         3.819341829167026E-011
   5.59597500000000         3.788815392836409E-011
   5.70902500000000         3.756848044755033E-011
   5.82207500000000         3.723581916470739E-011
   5.93512500000000         3.690076517999142E-011
   6.04817500000000         3.657139460295691E-011
   6.16122500000000         3.625424988991265E-011
   6.27427500000000         3.594643122932553E-011
   6.38732500000000         3.565875727124639E-011
   6.50037500000000         3.538700061309402E-011
   6.61342500000000         3.513548253623968E-011
   6.72647500000000         3.490170467057151E-011
   6.83952500000000         3.469442956951225E-011
   6.95257500000000         3.450396986082727E-011
   7.06562500000000         3.434554253080160E-011
   7.17867500000000         3.421847926307315E-011
   7.29172500000000         3.412623592351532E-011
   7.40477500000000         3.408079774117208E-011
   7.51782500000000         3.408721029355488E-011
   7.63087500000000         3.415298476918377E-011
   7.74392500000000         3.428861027424758E-011
   7.85697500000000         3.450457304562280E-011
   7.97002500000000         3.481048580803098E-011
   8.08307500000000         3.521001329014921E-011
   8.19612500000000         3.571025917402145E-011
   8.30917500000000         3.631328140383957E-011
   8.42222500000000         3.701831607499932E-011
   8.53527500000000         3.782798504097879E-011
   8.64832500000000         3.873226470457127E-011
   8.76137500000000         3.971754115710218E-011
   8.87442500000000         4.077352591433146E-011
   8.98747500000000         4.188372945920173E-011
   9.10052500000000         4.302303764471099E-011
   9.21357500000000         4.417447888786078E-011
   9.32662500000000         4.531272478668585E-011
   9.43967500000000         4.640974366120676E-011
   9.55272500000000         4.744113532135704E-011
   9.66577500000000         4.837901764262735E-011
   9.77882500000000         4.920177882035790E-011
   9.89187500000000         4.989340118944607E-011
   10.0049250000000         5.042493474206410E-011
   10.1179750000000         5.078779118721265E-011
   10.2310250000000         5.097576052244856E-011
   10.3440750000000         5.097992757077072E-011
   10.4571250000000         5.080432383913464E-011
   10.5701750000000         5.045244498387644E-011
   10.6832250000000         4.993292072748841E-011
   10.7962750000000         4.926218265289769E-011
   10.9093250000000         4.846039801814691E-011
   11.0223750000000         4.754851621328061E-011
   11.1354250000000         4.655030901834063E-011
   11.2484750000000         4.549008998165884E-011
   11.3615250000000         4.439514964078031E-011
   11.4745750000000         4.329269538589224E-011
   11.5876250000000         4.220375622465646E-011
   11.7006750000000         4.115370794537324E-011
   11.8137250000000         4.016204576818606E-011
   11.9267750000000         3.924059669575319E-011
   12.0398250000000         3.840965337883108E-011
   12.1528750000000         3.767155036158798E-011
   12.2659250000000         3.703485021063088E-011
   12.3789750000000         3.650328436574456E-011
   12.4920250000000         3.607529641568612E-011
   12.6050750000000         3.574806773498562E-011
   12.7181250000000         3.551403117427497E-011
   12.8311750000000         3.537121334133174E-011
   12.9442250000000         3.530700031776321E-011
   13.0572750000000         3.531702754533046E-011
   13.1703250000000         3.539339718173422E-011
   13.2833750000000         3.552963539641105E-011
   13.3964250000000         3.571874052112227E-011
   13.5094750000000         3.595968213068206E-011
   13.6225250000000         3.624814706125530E-011
   13.7355750000000         3.658096308886135E-011
   13.8486250000000         3.696056107606700E-011
   13.9616750000000         3.738090494979824E-011
   14.0747250000000         3.785095341303081E-011
   14.1877750000000         3.836661010085497E-011
   14.3008250000000         3.893176982320406E-011
   14.4138750000000         3.954148820443090E-011
   14.5269250000000         4.019300422910809E-011
   14.6399750000000         4.088702542350429E-011
   14.7530250000000         4.161596249032893E-011
   14.8660750000000         4.237375394821796E-011
   14.9791250000000         4.315011555733999E-011
   15.0921750000000         4.393637637170173E-011
   15.2052250000000         4.471827608501575E-011
   15.3182750000000         4.548247731840643E-011
   15.4313250000000         4.622235420252570E-011
   15.5443750000000         4.692569480259008E-011
   15.6574250000000         4.757503081834962E-011
   15.7704750000000         4.817172252121597E-011
   15.8835250000000         4.870395148989653E-011
   15.9965750000000         4.916736010447980E-011
   16.1096250000000         4.956766478821082E-011
   16.2226750000000         4.990880488713939E-011
   16.3357250000000         5.019719355264654E-011
   16.4487750000000         5.044534683858118E-011
   16.5618250000000         5.066765655102176E-011
   16.6748750000000         5.088544544601840E-011
   16.7879250000000         5.111368034194304E-011
   16.9009750000000         5.137314462160185E-011
   17.0140250000000         5.169033740137632E-011
   17.1270750000000         5.207940436635657E-011
   17.2401250000000         5.256012394288207E-011
   17.3531750000000         5.315606969654718E-011
   17.4662250000000         5.386888171015089E-011
   17.5792750000000         5.470769413305201E-011
   17.6923250000000         5.567537295333948E-011
   17.8053750000000         5.677061764850006E-011
   17.9184250000000         5.798078867527261E-011
   18.0314750000000         5.929441911648733E-011
   18.1445250000000         6.068640164517531E-011
   18.2575750000000         6.213131298404388E-011
   18.3706250000000         6.360446773044897E-011
   18.4836750000000         6.507241378378393E-011
   18.5967250000000         6.650126346564941E-011
   18.7097750000000         6.785374579189611E-011
   18.8228250000000         6.910284629182444E-011
   18.9358750000000         7.021192461983287E-011
   19.0489250000000         7.115984655388747E-011
   19.1619750000000         7.191604451671014E-011
   19.2750250000000         7.247355726974578E-011
   19.3880750000000         7.281795283287310E-011
   19.5011250000000         7.294459529211806E-011
   19.6141750000000         7.286089316543897E-011
   19.7272250000000         7.257980568493156E-011
   19.8402750000000         7.211716758146477E-011
   19.9533250000000         7.150397329113169E-011
   20.0663750000000         7.076750940581601E-011
   20.1794250000000         6.994958703241287E-011
   20.2924750000000         6.908296732578149E-011
   20.4055250000000         6.821936500329699E-011
   20.5185750000000         6.739352707579822E-011
   20.6316250000000         6.665475813054929E-011
   20.7446750000000         6.604474936990308E-011
   20.8577250000000         6.559416266389881E-011
   20.9707750000000         6.534437812955004E-011
   21.0838250000000         6.532223638079263E-011
   21.1968750000000         6.554919875543395E-011
   21.3099250000000         6.604114250404700E-011
   21.4229750000000         6.680993836560457E-011
   21.5360250000000         6.785386547498681E-011
   21.6490750000000         6.916983272413450E-011
   21.7621250000000         7.074625288712534E-011
   21.8751750000000         7.256986007055982E-011
   21.9882250000000         7.461311898199145E-011
   22.1012750000000         7.685372331372225E-011
   22.2143250000000         7.926185662431995E-011
   22.3273750000000         8.180312526801566E-011
   22.4404250000000         8.444443441882807E-011
   22.5534750000000         8.715245970535435E-011
   22.6665250000000         8.989509035911341E-011
   22.7795750000000         9.263996599020866E-011
   22.8926250000000         9.535588150783579E-011
   23.0056750000000         9.801677774088078E-011
   23.1187250000000         1.005971064814728E-010
   23.2317750000000         1.030730363320394E-010
   23.3448250000000         1.054312182085514E-010
   23.4578750000000         1.076543078390000E-010
   23.5709250000000         1.097308546973494E-010
   23.6839750000000         1.116501407801212E-010
   23.7970250000000         1.134089293048483E-010
   23.9100750000000         1.149996740200551E-010
   24.0231250000000         1.164207411310848E-010
   24.1361750000000         1.176772526721201E-010
   24.2492250000000         1.187612855112908E-010
   24.3622750000000         1.196798170009017E-010
   24.4753250000000         1.204277844437200E-010
   24.5883750000000         1.210133843898565E-010
   24.7014250000000         1.214386655286468E-010
   24.8144750000000         1.217016638503245E-010
   24.9275250000000         1.218066668845145E-010
   25.0405750000000         1.217590275659725E-010
   25.1536250000000         1.215595635852064E-010
   25.2666750000000         1.212144232085038E-010
   25.3797250000000         1.207283664167256E-010
   25.4927750000000         1.201053060888243E-010
   25.6058250000000         1.193599539885425E-010
   25.7188750000000         1.185007313233219E-010
   25.8319250000000         1.175375434526066E-010
   25.9449750000000         1.164846941516705E-010
   26.0580250000000         1.153622449160883E-010
   26.1710750000000         1.141885599579936E-010
   26.2841250000000         1.129886485915018E-010
   26.3971750000000         1.117799466143166E-010
   26.5102250000000         1.105959158866893E-010
   26.6232750000000         1.094563274757698E-010
   26.7363250000000         1.083941059645872E-010
   26.8493750000000         1.074383230837746E-010
   26.9624250000000         1.066114841212081E-010
   27.0754750000000         1.059463156144303E-010
   27.1885250000000         1.054606505755707E-010
   27.3015750000000         1.051853271427961E-010
   27.4146250000000         1.051326364921262E-010
   27.5276750000000         1.053189188147342E-010
   27.6407250000000         1.057543896509066E-010
   27.7537750000000         1.064460543626681E-010
   27.8668250000000         1.073937826862014E-010
   27.9798750000000         1.085940587674232E-010
   28.0929250000000         1.100359231229348E-010
   28.2059750000000         1.117027894874064E-010
   28.3190250000000         1.135717524396563E-010
   28.4320750000000         1.156278462166254E-010
   28.5451250000000         1.178328160237770E-010
   28.6581750000000         1.201634968915039E-010
   28.7712250000000         1.225809120510985E-010
   28.8842750000000         1.250562872535090E-010
   28.9973250000000         1.275444101455059E-010
   29.1103750000000         1.300187552404146E-010
   29.2234250000000         1.324434548040156E-010
   29.3364750000000         1.347905275963801E-010
   29.4495250000000         1.370282415702591E-010
   29.5625750000000         1.391365925642178E-010
   29.6756250000000         1.410919534045985E-010
   29.7886750000000         1.428800795418224E-010
   29.9017250000000         1.444924997350498E-010
   30.0147750000000         1.459210104159965E-010
   30.1278250000000         1.471596295875765E-010
   30.2408750000000         1.482178651241768E-010
   30.3539250000000         1.490981804826259E-010
   30.4669750000000         1.498128452715078E-010
   30.5800250000000         1.503712608530045E-010
   30.6930750000000         1.507828444084728E-010
   30.8061250000000         1.510632661846483E-010
   30.9191750000000         1.512308075717569E-010
   31.0322250000000         1.512953492848835E-010
   31.1452750000000         1.512730893954288E-010
   31.2583250000000         1.511699852050059E-010
   31.3713750000000         1.510016120846832E-010
   31.4844250000000         1.507728167582489E-010
   31.5974750000000         1.504874132740096E-010
   31.7105250000000         1.501550379464914E-010
   31.8235750000000         1.497717128954443E-010
   31.9366250000000         1.493433287216616E-010
   32.0496750000000         1.488690972267891E-010
   32.1627250000000         1.483507192938433E-010
   32.2757750000000         1.477884265875275E-010
   32.3888250000000         1.471843836604681E-010
   32.5018750000000         1.465447399071709E-010
   32.6149250000000         1.458747774342111E-010
   32.7279750000000         1.451852934432809E-010
   32.8410250000000         1.444868920421811E-010
   32.9540750000000         1.437957318685972E-010
   33.0671250000000         1.431257792172202E-010
   33.1801750000000         1.425014810117402E-010
   33.2932250000000         1.419483452449794E-010
   33.4062750000000         1.414873138002502E-010
   33.5193250000000         1.411423348352050E-010
   33.6323750000000         1.409406075796684E-010
   33.7454250000000         1.409067417161689E-010
   33.8584750000000         1.410662128099398E-010
   33.9715250000000         1.414341339355822E-010
   34.0845750000000         1.420323814787569E-010
   34.1976250000000         1.428731011365831E-010
   34.3106750000000         1.439656561887985E-010
   34.4237250000000         1.453084637793934E-010
   34.5367750000000         1.469079860816223E-010
   34.6498250000000         1.487511529468418E-010
   34.7628750000000         1.508273049035611E-010
   34.8759250000000         1.531233787329792E-010
   34.9889750000000         1.556135118005478E-010
   35.1020250000000         1.582750687237833E-010
   35.2150750000000         1.610805838079709E-010
   35.3281250000000         1.640007082022998E-010
   35.4411750000000         1.670086406742702E-010
   35.5542250000000         1.700745652050956E-010
   35.6672750000000         1.731679507719233E-010
   35.7803250000000         1.762651671382617E-010
   35.8933750000000         1.793440645928385E-010
   36.0064250000000         1.823874175340000E-010
   36.1194750000000         1.853782208439969E-010
   36.2325250000000         1.883077475277984E-010
   36.3455750000000         1.911672455427467E-010
   36.4586250000000         1.939584538892995E-010
   36.5716750000000         1.966803434131450E-010
   36.6847250000000         1.993369060441020E-010
   36.7977750000000         2.019389699509366E-010
   36.9108250000000         2.044909097335952E-010
   37.0238750000000         2.070071219424392E-010
   37.1369250000000         2.094903172394145E-010
   37.2499750000000         2.119536417885328E-010
   37.3630250000000         2.143991085998173E-010
   37.4760750000000         2.168323806242397E-010
   37.5891250000000         2.192495896751543E-010
   37.7021750000000         2.216516593430870E-010
   37.8152250000000         2.240239569986303E-010
   37.9282750000000         2.263558084817895E-010
   38.0413250000000         2.286342370390490E-010
   38.1543750000000         2.308351750987134E-010
   38.2674250000000         2.329390537739306E-010
   38.3804750000000         2.349200843248406E-010
   38.4935250000000         2.367570195434441E-010
   38.6065750000000         2.384210083647127E-010
   38.7196250000000         2.398933663371830E-010
   38.8326750000000         2.411502368024435E-010
   38.9457250000000         2.421766034226310E-010
   39.0587750000000         2.429604065271334E-010
   39.1718250000000         2.434940384461414E-010
   39.2848750000000         2.437754388948502E-010
   39.3979250000000         2.438118725142204E-010
   39.5109750000000         2.436161105322341E-010
   39.6240250000000         2.432041440803252E-010
   39.7370750000000         2.426024409881916E-010
   39.8501250000000         2.418395831282586E-010
   39.9631750000000         2.409515067847400E-010
   40.0762250000000         2.399758069268464E-010
   40.1892750000000         2.389561919879014E-010
   40.3023250000000         2.379322771748856E-010
   40.4153750000000         2.369446791006084E-010
   40.5284250000000         2.360413783154295E-010
   40.6414750000000         2.352607694065149E-010
   40.7545250000000         2.346374456274399E-010
   40.8675750000000         2.342037250281458E-010
   40.9806250000000         2.339887315502866E-010
   41.0936750000000         2.340122025327410E-010
   41.2067250000000         2.342889810050536E-010
   41.3197750000000         2.348301446686057E-010
   41.4328250000000         2.356356235616175E-010
   41.5458750000000         2.367068434532294E-010
   41.6589250000000         2.380341148341431E-010
   41.7719750000000         2.396046056716791E-010
   41.8850250000000         2.414018570045395E-010
   41.9980750000000         2.434078533745775E-010
   42.1111250000000         2.455949200824319E-010
   42.2241750000000         2.479436868073863E-010
   42.3372250000000         2.504286825855109E-010
   42.4502750000000         2.530252451112987E-010
   42.5633250000000         2.557125641717424E-010
   42.6763750000000         2.584590752154007E-010
   42.7894250000000         2.612529146558327E-010
   42.9024750000000         2.640693040591277E-010
   43.0155250000000         2.668976318594287E-010
   43.1285750000000         2.697119440844332E-010
   43.2416250000000         2.725026308981564E-010
   43.3546750000000         2.752509656734911E-010
   43.4677250000000         2.779488150581466E-010
   43.5807750000000         2.805792097901638E-010
   43.6938250000000         2.831275962604607E-010
   43.8068750000000         2.855776640334886E-010
   43.9199250000000         2.879121073736627E-010
   44.0329750000000         2.901172437309633E-010
   44.1460250000000         2.921717518071314E-010
   44.2590750000000         2.940569085600488E-010
   44.3721250000000         2.957446833494972E-010
   44.4851750000000         2.972242282549366E-010
   44.5982250000000         2.984664134310034E-010
   44.7112750000000         2.994535562016062E-010
   44.8243250000000         3.001623972958451E-010
   44.9373750000000         3.005834228580036E-010
   45.0504250000000         3.006995451193942E-010
   45.1634750000000         3.005083229003664E-010
   45.2765250000000         2.999999030664626E-010
   45.3895750000000         2.991854174859853E-010
   45.5026250000000         2.980736162214410E-010
   45.6156750000000         2.966805290965651E-010
   45.7287250000000         2.950330584030224E-010
   45.8417750000000         2.931629728311524E-010
   45.9548250000000         2.911072385484689E-010
   46.0678750000000         2.889159700787299E-010
   46.1809250000000         2.866406395307935E-010
   46.2939750000000         2.843303429603995E-010
   46.4070250000000         2.820429276895374E-010
   46.5200750000000         2.798452981409953E-010
   46.6331250000000         2.777886671305224E-010
   46.7461750000000         2.759315394219193E-010
   46.8592250000000         2.743322361991490E-010
   46.9722750000000         2.730364850632813E-010
   47.0853250000000         2.720880992938024E-010
   47.1983750000000         2.715245385486551E-010
   47.3114250000000         2.713752727994342E-010
   47.4244750000000         2.716556934191920E-010
   47.5375250000000         2.723821669924648E-010
   47.6505750000000         2.735513741473208E-010
   47.7636250000000         2.751586599938627E-010
   47.8766750000000         2.771886302737330E-010
   47.9897250000000         2.796178733209034E-010
   48.1027750000000         2.824156732933584E-010
   48.2158250000000         2.855491089352993E-010
   48.3288750000000         2.889783434009850E-010
   48.4419250000000         2.926612395210231E-010
   48.5549750000000         2.965549323907180E-010
   48.6680250000000         3.006186756915364E-010
   48.7810750000000         3.048050149681180E-010
   48.8941250000000         3.090831673716134E-010
   49.0071750000000         3.134062825581258E-010
   49.1202250000000         3.177504185620850E-010
   49.2332750000000         3.220797997268777E-010
   49.3463250000000         3.263758417350282E-010
   49.4593750000000         3.306173181471363E-010
   49.5724250000000         3.347874895466205E-010
   49.6854750000000         3.388766070979200E-010
   49.7985250000000         3.428775737065124E-010
   49.9115750000000         3.467845823910206E-010
   50.0246250000000         3.505948547770459E-010
   50.1376750000000         3.543095489039802E-010
   50.2507250000000         3.579285592533796E-010
   50.3637750000000         3.614487559619439E-010
   50.4768250000000         3.648742268296301E-010
   50.5898750000000         3.682001031215947E-010
   50.7029250000000         3.714268893801561E-010
   50.8159750000000         3.745514702716278E-010
   50.9290250000000         3.775670172794240E-010
   51.0420750000000         3.804659283660918E-010
   51.1551250000000         3.832464177336110E-010
   51.2681750000000         3.859012391352641E-010
   51.3812250000000         3.884191484646954E-010
   51.4942750000000         3.907972565397825E-010
   51.6073250000000         3.930306549413449E-010
   51.7203750000000         3.951145239117565E-010
   51.8334250000000         3.970482866515589E-010
   51.9464750000000         3.988320442184247E-010
   52.0595250000000         4.004696427344727E-010
   52.1725750000000         4.019686157740293E-010
   52.2856250000000         4.033408642490851E-010
   52.3986750000000         4.045933144075924E-010
   52.5117250000000         4.057447788147419E-010
   52.6247750000000         4.068117721452918E-010
   52.7378250000000         4.078117886967330E-010
   52.8508750000000         4.087643459927238E-010
   52.9639250000000         4.096902093162073E-010
   53.0769750000000         4.106043134610166E-010
   53.1900250000000         4.115292706649830E-010
   53.3030750000000         4.124829066572444E-010
   53.4161250000000         4.134720223995738E-010
   53.5291750000000         4.145177312078126E-010
   53.6422250000000         4.156205057667038E-010
   53.7552750000000         4.167928153992430E-010
   53.8683250000000         4.180335574400842E-010
   53.9813750000000         4.193395784675237E-010
   54.0944250000000         4.207139962286124E-010
   54.2074750000000         4.221449378768962E-010
   54.3205250000000         4.236294060634827E-010
   54.4335750000000         4.251575385339780E-010
   54.5466250000000         4.267164409877308E-010
   54.6596750000000         4.282971237876770E-010
   54.7727250000000         4.298909474593703E-010
   54.8857750000000         4.314901904006128E-010
   54.9988250000000         4.330835049203824E-010
   55.1118750000000         4.346659735117611E-010
   55.2249250000000         4.362357356649935E-010
   55.3379750000000         4.377900638774201E-010
   55.4510250000000         4.393345929974014E-010
   55.5640750000000         4.408644063084260E-010
   55.6771250000000         4.423899876760809E-010
   55.7901750000000         4.439198103847295E-010
   55.9032250000000         4.454626510005545E-010
   56.0162750000000         4.470287478619735E-010
   56.1293250000000         4.486277382752823E-010
   56.2423750000000         4.502725196897881E-010
   56.3554250000000         4.519738444276628E-010
   56.4684750000000         4.537430754774218E-010
   56.5815250000000         4.555856003230707E-010
   56.6945750000000         4.575076033209970E-010
   56.8076250000000         4.595178711369979E-010
   56.9206750000000         4.616188098714297E-010
   57.0337250000000         4.638046598357924E-010
   57.1467750000000         4.660746635990816E-010
   57.2598250000000         4.684192919816995E-010
   57.3728750000000         4.708283179143786E-010
   57.4859250000000         4.732923158011527E-010
   57.5989750000000         4.757881075993054E-010
   57.7120250000000         4.783015246877608E-010
   57.8250750000000         4.808045079695427E-010
   57.9381250000000         4.832710679228001E-010
   58.0511750000000         4.856756243366773E-010
   58.1642250000000         4.879851261422332E-010
   58.2772750000000         4.901671813199404E-010
   58.3903250000000         4.921840186599853E-010
   58.5033750000000         4.940023183968467E-010
   58.6164250000000         4.955892609266968E-010
   58.7294750000000         4.969035312658429E-010
   58.8425250000000         4.979159659165969E-010
   58.9555750000000         4.985951288393469E-010
   59.0686250000000         4.989119278513462E-010
   59.1816750000000         4.988446608508852E-010
   59.2947250000000         4.983762169458422E-010
   59.4077750000000         4.975005256733362E-010
   59.5208250000000         4.962183261013144E-010
   59.6338750000000         4.945426230749620E-010
   59.7469250000000         4.924906285474907E-010
   59.8599750000000         4.901063239001202E-010
   59.9730250000000         4.874394307174779E-010
   60.0860750000000         4.845529066497591E-010
   60.1991250000000         4.815292361825470E-010
   60.3121750000000         4.784547986668430E-010
   60.4252250000000         4.754403897513668E-010
   60.5382750000000         4.726014176873219E-010
   60.6513250000000         4.700635223585103E-010
   60.7643750000000         4.679582618321860E-010
   60.8774250000000         4.664193605695190E-010
   60.9904750000000         4.655833926909401E-010
   61.1035250000000         4.655696836031153E-010
   61.2165750000000         4.664968011042328E-010
   61.3296250000000         4.684627887380603E-010
   61.4426750000000         4.715403798826907E-010
   61.5557250000000         4.757832993189756E-010
   61.6687750000000         4.812016402420109E-010
   61.7818250000000         4.877847384716876E-010
   61.8948750000000         4.954644141628443E-010
   62.0079250000000         5.041455697183153E-010
   62.1209750000000         5.136858743563260E-010
   62.2340250000000         5.238965228285230E-010
   62.3470750000000         5.345551638036614E-010
   62.4601250000000         5.454032085994807E-010
   62.5731750000000         5.561494254113229E-010
   62.6862250000000         5.664849406181817E-010
   62.7992750000000         5.760815532835977E-010
   62.9123250000000         5.846196264401386E-010
   63.0253750000000         5.917833170706872E-010
   63.1384250000000         5.972768489864024E-010
   63.2514750000000         6.008580456333687E-010
   63.3645250000000         6.023164387436081E-010
   63.4775750000000         6.015253798673225E-010
   63.5906250000000         5.984204249121174E-010
   63.7036750000000         5.930268890564887E-010
   63.8167250000000         5.854737599415988E-010
   63.9297750000000         5.759796299064749E-010
   64.0428250000000         5.648703045569357E-010
   64.1558750000000         5.525773266978374E-010
   64.2689250000000         5.396114171834364E-010
   64.3819750000000         5.265842891112739E-010
   64.4950250000000         5.141616521501378E-010
   64.6080750000000         5.030642888698510E-010
   64.7211250000000         4.940391658680190E-010
   64.8341750000000         4.878327788858771E-010
   64.9472250000000         4.851593836696674E-010
   65.0602750000000         4.866732263576161E-010
   65.1733250000000         4.929290716684174E-010
   65.2863750000000         5.043601657268699E-010
   65.3994250000000         5.212440852703798E-010
   65.5124750000000         5.436661443989632E-010