 -0.847875000000000         3.144512088724813E-019
 -0.734825000000000         3.375037530875601E-019
 -0.621775000000000         7.326284966644303E-019
 -0.508725000000000         2.338355208036756E-018
 -0.395675000000000         6.826204932533726E-018
 -0.282625000000000         1.323945264131262E-017
 -0.169575000000000         5.997497061750807E-018
 -5.652500000000005E-002   -7.807542036692444E-017
  5.652499999999994E-002   -4.408539882012958E-016
  0.169575000000000        -1.446490929782452E-015
  0.282625000000000        -3.922853314166665E-015
  0.395675000000000        -8.938669992630714E-015
  0.508725000000000        -1.800626103789293E-014
  0.621775000000000        -3.335409671424843E-014
  0.734825000000000        -5.757275584852336E-014
  0.847875000000000        -9.298319065118964E-014
  0.960925000000000        -1.428470685244366E-013
   1.07397500000000        -2.107155097724059E-013
   1.18702500000000        -2.993261405047518E-013
   1.30007500000000        -4.117326523272105E-013
   1.41312500000000        -5.504737015587922E-013
   1.52617500000000        -7.182454618260329E-013
   1.63922500000000        -9.155605916563270E-013
   1.75227500000000        -1.144857207311489E-012
   1.86532500000000        -1.401621677546542E-012
   1.97837500000000        -1.687976888317179E-012
   2.09142500000000        -1.999473191120900E-012
   2.20447500000000        -2.330770189674424E-012
   2.31752500000000        -2.677851341059668E-012
   2.43057500000000        -3.029888907700891E-012
   2.54362500000000        -3.379673693789171E-012
   2.65667500000000        -3.714562844099427E-012
   2.76972500000000        -4.028492803697208E-012
   2.88277500000000        -4.303579091736785E-012
   2.99582500000000        -4.533194814965500E-012
   3.10887500000000        -4.699114889525449E-012
   3.22192500000000        -4.794843560233886E-012
   3.33497500000000        -4.802994838789328E-012
   3.44802500000000        -4.721988688529794E-012
   3.56107500000000        -4.542729760944835E-012
   3.67412500000000        -4.251280267419091E-012
   3.78717500000000        -3.855480865370077E-012
   3.90022500000000        -3.352998661952747E-012
   4.01327500000000        -2.744207919107255E-012
   4.12632500000000        -2.031421812453985E-012
   4.23937500000000        -1.231881787137955E-012
   4.35242500000000        -3.527282922046825E-013
   4.46547500000000         5.913360071218676E-013
   4.57852500000000         1.583571347645708E-012
   4.69157500000000         2.606596092260040E-012
   4.80462500000000         3.640645399842969E-012
   4.91767500000000         4.665027652932159E-012
   5.03072500000000         5.664688143442955E-012
   5.14377500000000         6.616442919089735E-012
   5.25682500000000         7.508794197638626E-012
   5.36987500000000         8.320647131887264E-012
   5.48292500000000         9.042240466163558E-012
   5.59597500000000         9.664366239108040E-012
   5.70902500000000         1.017705393887426E-011
   5.82207500000000         1.058432176133408E-011
   5.93512500000000         1.087603152198052E-011
   6.04817500000000         1.106279535768722E-011
   6.16122500000000         1.114806076264942E-011
   6.27427500000000         1.114421356425383E-011
   6.38732500000000         1.105352466220551E-011
   6.50037500000000         1.088607113122229E-011
   6.61342500000000         1.067002062291812E-011
   6.72647500000000         1.040291464436012E-011
   6.83952500000000         1.010165543827733E-011
   6.95257500000000         9.781246565862873E-012
   7.06562500000000         9.449763112767348E-012
   7.17867500000000         9.116745327278384E-012
   7.29172500000000         8.789727648151124E-012
   7.40477500000000         8.470857192363900E-012
   7.51782500000000         8.161940970533604E-012
   7.63087500000000         7.861726172845554E-012
   7.74392500000000         7.574993960632916E-012
   7.85697500000000         7.292507528989599E-012
   7.97002500000000         7.010314289883337E-012
   8.08307500000000         6.724058160393382E-012
   8.19612500000000         6.421543452912642E-012
   8.30917500000000         6.097985632188144E-012
   8.42222500000000         5.752718958506761E-012
   8.53527500000000         5.370172446054806E-012
   8.64832500000000         4.956293785424535E-012
   8.76137500000000         4.503374332629129E-012
   8.87442500000000         4.011439741271256E-012
   8.98747500000000         3.483584844987105E-012
   9.10052500000000         2.919947482673756E-012
   9.21357500000000         2.330918695998494E-012
   9.32662500000000         1.719456458322842E-012
   9.43967500000000         1.095895053749677E-012
   9.55272500000000         4.715210820157703E-013
   9.66577500000000        -1.434843122868923E-013
   9.77882500000000        -7.367656528327605E-013
   9.89187500000000        -1.298632977444160E-012
   10.0049250000000        -1.817285348987042E-012
   10.1179750000000        -2.280242748371855E-012
   10.2310250000000        -2.681362391285737E-012
   10.3440750000000        -3.006839759777844E-012
   10.4571250000000        -3.254419255701435E-012
   10.5701750000000        -3.418331182952678E-012
   10.6832250000000        -3.489296338206486E-012
   10.7962750000000        -3.471878608152642E-012
   10.9093250000000        -3.361394479788057E-012
   11.0223750000000        -3.159812021840146E-012
   11.1354250000000        -2.867082385969318E-012
   11.2484750000000        -2.492966474558798E-012
   11.3615250000000        -2.037584799378868E-012
   11.4745750000000        -1.507448107921060E-012
   11.5876250000000        -9.100573797741553E-013
   11.7006750000000        -2.521274289636082E-013
   11.8137250000000         4.523434762687895E-013
   11.9267750000000         1.198919219785306E-012
   12.0398250000000         1.973459045609620E-012
   12.1528750000000         2.765708804866478E-012
   12.2659250000000         3.565853718069499E-012
   12.3789750000000         4.356917124816274E-012
   12.4920250000000         5.130890176150260E-012
   12.6050750000000         5.868447275511907E-012
   12.7181250000000         6.564188694726205E-012
   12.8311750000000         7.192344894547247E-012
   12.9442250000000         7.745069891039860E-012
   13.0572750000000         8.207208353862396E-012
   13.1703250000000         8.569725577802116E-012
   13.2833750000000         8.820888161309831E-012
   13.3964250000000         8.946540253031842E-012
   13.5094750000000         8.944171671755985E-012
   13.6225250000000         8.804973263718032E-012
   13.7355750000000         8.524575051553131E-012
   13.8486250000000         8.111036705711379E-012
   13.9616750000000         7.558558821385769E-012
   14.0747250000000         6.876311592197192E-012
   14.1877750000000         6.079290641958871E-012
   14.3008250000000         5.175054431110415E-012
   14.4138750000000         4.183615423489857E-012
   14.5269250000000         3.113119470011695E-012
   14.6399750000000         1.997677036758856E-012
   14.7530250000000         8.477689202613263E-013
   14.8660750000000        -3.128277621310771E-013
   14.9791250000000        -1.456214744815257E-012
   15.0921750000000        -2.570898263913684E-012
   15.2052250000000        -3.630982301635407E-012
   15.3182750000000        -4.620517621969996E-012
   15.4313250000000        -5.520695325540616E-012
   15.5443750000000        -6.324905544378258E-012
   15.6574250000000        -7.019253715363859E-012
   15.7704750000000        -7.599606948533261E-012
   15.8835250000000        -8.060917251392181E-012
   15.9965750000000        -8.405542565258471E-012
   16.1096250000000        -8.632311892798942E-012
   16.2226750000000        -8.752849919027301E-012
   16.3357250000000        -8.770000033971265E-012
   16.4487750000000        -8.693203897644231E-012
   16.5618250000000        -8.528996694641380E-012
   16.6748750000000        -8.295240153019558E-012
   16.7879250000000        -7.995613438843378E-012
   16.9009750000000        -7.638576979967479E-012
   17.0140250000000        -7.229285802629267E-012
   17.1270750000000        -6.779197392058779E-012
   17.2401250000000        -6.294885190701853E-012
   17.3531750000000        -5.766274167946472E-012
   17.4662250000000        -5.211662974882037E-012
   17.5792750000000        -4.618097539883048E-012
   17.6923250000000        -3.996564601087014E-012
   17.8053750000000        -3.344619587689541E-012
   17.9184250000000        -2.657104976541151E-012
   18.0314750000000        -1.938050261688124E-012
   18.1445250000000        -1.192241896028462E-012
   18.2575750000000        -4.206944329974308E-013
   18.3706250000000         3.662605238524923E-013
   18.4836750000000         1.166954439337576E-012
   18.5967250000000         1.964782038874620E-012
   18.7097750000000         2.748757193948104E-012
   18.8228250000000         3.503167347893820E-012
   18.9358750000000         4.211804586526631E-012
   19.0489250000000         4.857169128637527E-012
   19.1619750000000         5.420273150269282E-012
   19.2750250000000         5.889286276446070E-012
   19.3880750000000         6.239558734053496E-012
   19.5011250000000         6.460218269890863E-012
   19.6141750000000         6.539985196658364E-012
   19.7272250000000         6.467486134678026E-012
   19.8402750000000         6.247103297101120E-012
   19.9533250000000         5.873694053657966E-012
   20.0663750000000         5.345333904090155E-012
   20.1794250000000         4.678276302864816E-012
   20.2924750000000         3.885347732411361E-012
   20.4055250000000         2.982789130016166E-012
   20.5185750000000         1.991296192165400E-012
   20.6316250000000         9.328678767667665E-013
   20.7446750000000        -1.628894617493390E-013
   20.8577250000000        -1.270438970358413E-012
   20.9707750000000        -2.362678309666459E-012
   21.0838250000000        -3.414913275430368E-012
   21.1968750000000        -4.403797382479612E-012
   21.3099250000000        -5.297458204905296E-012
   21.4229750000000        -6.088295788876236E-012
   21.5360250000000        -6.757403161782406E-012
   21.6490750000000        -7.289960682110957E-012
   21.7621250000000        -7.682364688533242E-012
   21.8751750000000        -7.927579214377900E-012
   21.9882250000000        -8.030579553309519E-012
   22.1012750000000        -7.990828785366954E-012
   22.2143250000000        -7.819813101374592E-012
   22.3273750000000        -7.526642371265711E-012
   22.4404250000000        -7.124983572584808E-012
   22.5534750000000        -6.627726089447965E-012
   22.6665250000000        -6.048183211466817E-012
   22.7795750000000        -5.405262893258899E-012
   22.8926250000000        -4.706430114718442E-012
   23.0056750000000        -3.974027590381606E-012
   23.1187250000000        -3.212363902312861E-012
   23.2317750000000        -2.438549303921283E-012
   23.3448250000000        -1.661033704859589E-012
   23.4578750000000        -8.882654438743569E-013
   23.5709250000000        -1.278487596282449E-013
   23.6839750000000         6.097332632745329E-013
   23.7970250000000         1.323189891571654E-012
   23.9100750000000         2.002165803670705E-012
   24.0231250000000         2.642537911118642E-012
   24.1361750000000         3.242261524758386E-012
   24.2492250000000         3.789069361137771E-012
   24.3622750000000         4.280652877255279E-012
   24.4753250000000         4.706570730997997E-012
   24.5883750000000         5.060092483728797E-012
   24.7014250000000         5.330183149155189E-012
   24.8144750000000         5.512504897595790E-012
   24.9275250000000         5.596212742577599E-012
   25.0405750000000         5.574473094025153E-012
   25.1536250000000         5.442511612521977E-012
   25.2666750000000         5.193278913188515E-012
   25.3797250000000         4.827645963348016E-012
   25.4927750000000         4.338376340759411E-012
   25.6058250000000         3.732057221887221E-012
   25.7188750000000         3.012017624238656E-012
   25.8319250000000         2.190214768335147E-012
   25.9449750000000         1.267220662245573E-012
   26.0580250000000         2.669787880394661E-013
   26.1710750000000        -8.020505732321728E-013
   26.2841250000000        -1.922136159604260E-012
   26.3971750000000        -3.072608931994167E-012
   26.5102250000000        -4.233124445938951E-012
   26.6232750000000        -5.387440756065978E-012
   26.7363250000000        -6.516005381471472E-012
   26.8493750000000        -7.592724290435114E-012
   26.9624250000000        -8.609655154539227E-012
   27.0754750000000        -9.546347387096905E-012
   27.1885250000000        -1.039439161960662E-011
   27.3015750000000        -1.114115651835476E-011
   27.4146250000000        -1.177499118591614E-011
   27.5276750000000        -1.229502654062081E-011
   27.6407250000000        -1.269921800579885E-011
   27.7537750000000        -1.299172761608754E-011
   27.8668250000000        -1.317206174072203E-011
   27.9798750000000        -1.324410964118647E-011
   28.0929250000000        -1.322138330964929E-011
   28.2059750000000        -1.310408953655667E-011
   28.3190250000000        -1.291036588612699E-011
   28.4320750000000        -1.264295306751213E-011
   28.5451250000000        -1.231906158486325E-011
   28.6581750000000        -1.194329248148812E-011
   28.7712250000000        -1.152872677088024E-011
   28.8842750000000        -1.108400106003335E-011
   28.9973250000000        -1.062277841614409E-011
   29.1103750000000        -1.014670670505862E-011
   29.2234250000000        -9.667643867909198E-012
   29.3364750000000        -9.188562162275287E-012
   29.4495250000000        -8.723973105361448E-012
   29.5625750000000        -8.274504152571352E-012
   29.6756250000000        -7.849762744717498E-012
   29.7886750000000        -7.450974533294323E-012
   29.9017250000000        -7.088046846606523E-012
   30.0147750000000        -6.766080741580998E-012
   30.1278250000000        -6.484937052967943E-012
   30.2408750000000        -6.253795981293995E-012
   30.3539250000000        -6.075669534250073E-012
   30.4669750000000        -5.953703279111762E-012
   30.5800250000000        -5.890149649583821E-012
   30.6930750000000        -5.887925334292127E-012
   30.8061250000000        -5.948443980596999E-012
   30.9191750000000        -6.072085437603358E-012
   31.0322250000000        -6.256612395729365E-012
   31.1452750000000        -6.499095742138717E-012
   31.2583250000000        -6.798336034876738E-012
   31.3713750000000        -7.146388777430258E-012
   31.4844250000000        -7.537759408422356E-012
   31.5974750000000        -7.968465640487932E-012
   31.7105250000000        -8.429677582332131E-012
   31.8235750000000        -8.913092759703032E-012
   31.9366250000000        -9.407706270402598E-012
   32.0496750000000        -9.906671759639939E-012
   32.1627250000000        -1.040110799484760E-011
   32.2757750000000        -1.088309931841754E-011
   32.3888250000000        -1.134606453929686E-011
   32.5018750000000        -1.178274120271802E-011
   32.6149250000000        -1.218998900822524E-011
   32.7279750000000        -1.255780818611265E-011
   32.8410250000000        -1.288975288446462E-011
   32.9540750000000        -1.317572587839685E-011
   33.0671250000000        -1.341748602050763E-011
   33.1801750000000        -1.362152145529301E-011
   33.2932250000000        -1.378306460754861E-011
   33.4062750000000        -1.390090978608179E-011
   33.5193250000000        -1.398464873105110E-011
   33.6323750000000        -1.403427003236285E-011
   33.7454250000000        -1.405105115383194E-011
   33.8584750000000        -1.404096182394001E-011
   33.9715250000000        -1.400812090058105E-011
   34.0845750000000        -1.395483985914772E-011
   34.1976250000000        -1.388565696407150E-011
   34.3106750000000        -1.380034026914857E-011
   34.4237250000000        -1.371171043874504E-011
   34.5367750000000        -1.361043728207495E-011
   34.6498250000000        -1.350922293170643E-011
   34.7628750000000        -1.340261405853613E-011
   34.8759250000000        -1.329565855116768E-011
   34.9889750000000        -1.318676040088918E-011
   35.1020250000000        -1.308212761699355E-011
   35.2150750000000        -1.297030861761499E-011
   35.3281250000000        -1.286323194234276E-011
   35.4411750000000        -1.275152408171460E-011
   35.5542250000000        -1.263599916622804E-011
   35.6672750000000        -1.251293842945960E-011
   35.7803250000000        -1.238023391749358E-011
   35.8933750000000        -1.223010482878831E-011
   36.0064250000000        -1.206604610412844E-011
   36.1194750000000        -1.188061949674297E-011
   36.2325250000000        -1.166963127184051E-011
   36.3455750000000        -1.142744751007266E-011
   36.4586250000000        -1.116112180055939E-011
   36.5716750000000        -1.086618419992615E-011
   36.6847250000000        -1.054391700706818E-011
   36.7977750000000        -1.019729860044579E-011
   36.9108250000000        -9.830731123438869E-012
   37.0238750000000        -9.456239702117362E-012
   37.1369250000000        -9.082416916807034E-012
   37.2499750000000        -8.720316316499298E-012
   37.3630250000000        -8.390799586646776E-012
   37.4760750000000        -8.106568324492997E-012
   37.5891250000000        -7.886537754684430E-012
   37.7021750000000        -7.753648551384508E-012
   37.8152250000000        -7.720206420079229E-012
   37.9282750000000        -7.805697721547281E-012
   38.0413250000000        -8.030817765827580E-012
   38.1543750000000        -8.406247358089982E-012
   38.2674250000000        -8.938199128080426E-012
   38.3804750000000        -9.634102124708203E-012
   38.4935250000000        -1.049172884380714E-011
   38.6065750000000        -1.150378697818948E-011
   38.7196250000000        -1.265876865425979E-011
   38.8326750000000        -1.393509410415202E-011
   38.9457250000000        -1.530569936629921E-011
   39.0587750000000        -1.674204299224561E-011
   39.1718250000000        -1.820468921096741E-011
   39.2848750000000        -1.965385689432402E-011
   39.3979250000000        -2.104800317885115E-011
   39.5109750000000        -2.234094293494454E-011
   39.6240250000000        -2.349019864792911E-011
   39.7370750000000        -2.445469957177443E-011
   39.8501250000000        -2.519736556541807E-011
   39.9631750000000        -2.568637814038876E-011
   40.0762250000000        -2.589980375420453E-011
   40.1892750000000        -2.582076647644692E-011
   40.3023250000000        -2.544283265540053E-011
   40.4153750000000        -2.477036696564238E-011
   40.5284250000000        -2.381929481239504E-011
   40.6414750000000        -2.261167031462198E-011
   40.7545250000000        -2.118338337201147E-011
   40.8675750000000        -1.957209830601752E-011
   40.9806250000000        -1.783529887898138E-011
   41.0936750000000        -1.601869243353627E-011
   41.2067250000000        -1.418438942047549E-011
   41.3197750000000        -1.239912371743187E-011
   41.4328250000000        -1.070967501631330E-011
   41.5458750000000        -9.179370641055251E-012
   41.6589250000000        -7.858547240939444E-012
   41.7719750000000        -6.792917551050958E-012
   41.8850250000000        -6.016588650822378E-012
   41.9980750000000        -5.555564588150465E-012
   42.1111250000000        -5.434121311862679E-012
   42.2241750000000        -5.652727377831180E-012
   42.3372250000000        -6.209223982379092E-012
   42.4502750000000        -7.088831560181844E-012
   42.5633250000000        -8.269407462244997E-012
   42.6763750000000        -9.720265447337480E-012
   42.7894250000000        -1.140653037404573E-011
   42.9024750000000        -1.328165798533255E-011
   43.0155250000000        -1.530081038048282E-011
   43.1285750000000        -1.741617335174541E-011
   43.2416250000000        -1.958391131187182E-011
   43.3546750000000        -2.175288369931714E-011
   43.4677250000000        -2.388447207467590E-011
   43.5807750000000        -2.594435391671630E-011
   43.6938250000000        -2.788950530461258E-011
   43.8068750000000        -2.970167643340402E-011
   43.9199250000000        -3.135909296047787E-011
   44.0329750000000        -3.284022688088902E-011
   44.1460250000000        -3.413370723339966E-011
   44.2590750000000        -3.524357908079476E-011
   44.3721250000000        -3.616642249243247E-011
   44.4851750000000        -3.689154661725412E-011
   44.5982250000000        -3.743709213894152E-011
   44.7112750000000        -3.781058077824842E-011
   44.8243250000000        -3.801114378613179E-011
   44.9373750000000        -3.804760297647256E-011
   45.0504250000000        -3.792860732324085E-011
   45.1634750000000        -3.765915981605321E-011
   45.2765250000000        -3.724727622622321E-011
   45.3895750000000        -3.669776998242713E-011
   45.5026250000000        -3.601781366977518E-011
   45.6156750000000        -3.520456891400435E-011
   45.7287250000000        -3.426792568767937E-011
   45.8417750000000        -3.320936561328348E-011
   45.9548250000000        -3.204904235489566E-011
   46.0678750000000        -3.077915862112084E-011
   46.1809250000000        -2.941989625240223E-011
   46.2939750000000        -2.798655897431074E-011
   46.4070250000000        -2.649650594842791E-011
   46.5200750000000        -2.496382572808785E-011
   46.6331250000000        -2.341618042207010E-011
   46.7461750000000        -2.188057383228257E-011
   46.8592250000000        -2.037705730035831E-011
   46.9722750000000        -1.893514872518365E-011
   47.0853250000000        -1.758185258206391E-011
   47.1983750000000        -1.634477001531270E-011
   47.3114250000000        -1.524310180881931E-011
   47.4244750000000        -1.430740195746791E-011
   47.5375250000000        -1.355018272988476E-011
   47.6505750000000        -1.298603234365992E-011
   47.7636250000000        -1.263104619541614E-011
   47.8766750000000        -1.248747851721177E-011
   47.9897250000000        -1.256131918340523E-011
   48.1027750000000        -1.284316653522225E-011
   48.2158250000000        -1.332659022792323E-011
   48.3288750000000        -1.400405293790714E-011
   48.4419250000000        -1.485538899988885E-011
   48.5549750000000        -1.586701147078293E-011
   48.6680250000000        -1.701584675602133E-011
   48.7810750000000        -1.828712828516100E-011
   48.8941250000000        -1.965297247684904E-011
   49.0071750000000        -2.109733003569455E-011
   49.1202250000000        -2.259043686542182E-011
   49.2332750000000        -2.412604309179344E-011
   49.3463250000000        -2.567466274388086E-011
   49.4593750000000        -2.721316433959162E-011
   49.5724250000000        -2.874368603995504E-011
   49.6854750000000        -3.023596988553749E-011
   49.7985250000000        -3.168018863631977E-011
   49.9115750000000        -3.306651488409969E-011
   50.0246250000000        -3.437468894169060E-011
   50.1376750000000        -3.560726673222016E-011
   50.2507250000000        -3.673218552764368E-011
   50.3637750000000        -3.775711924152777E-011
   50.4768250000000        -3.865887961671635E-011
   50.5898750000000        -3.943138660538147E-011
   50.7029250000000        -4.006531512941544E-011
   50.8159750000000        -4.055153926442066E-011
   50.9290250000000        -4.087919707541872E-011
   51.0420750000000        -4.104356032164429E-011
   51.1551250000000        -4.104172503785467E-011
   51.2681750000000        -4.087615565023662E-011
   51.3812250000000        -4.054853952640799E-011
   51.4942750000000        -4.006604928437005E-011
   51.6073250000000        -3.943645260663566E-011
   51.7203750000000        -3.867390845040177E-011
   51.8334250000000        -3.780312970297961E-011
   51.9464750000000        -3.684343055382719E-011
   52.0595250000000        -3.582413510070555E-011
   52.1725750000000        -3.476401483368291E-011
   52.2856250000000        -3.369866278280400E-011
   52.3986750000000        -3.265715024143816E-011
   52.5117250000000        -3.166452889086434E-011
   52.6247750000000        -3.075573992583174E-011
   52.7378250000000        -2.994626113517246E-011
   52.8508750000000        -2.926055342341728E-011
   52.9639250000000        -2.871362949479737E-011
   53.0769750000000        -2.831138445957185E-011
   53.1900250000000        -2.806104581806418E-011
   53.3030750000000        -2.795982319278811E-011
   53.4161250000000        -2.799579012074153E-011
   53.5291750000000        -2.815576342999668E-011
   53.6422250000000        -2.842086554933557E-011
   53.7552750000000        -2.876857869031479E-011
   53.8683250000000        -2.917671423904048E-011
   53.9813750000000        -2.961224108863251E-011
   54.0944250000000        -3.005230922233978E-011
   54.2074750000000        -3.046978830610098E-011
   54.3205250000000        -3.085147057805119E-011
   54.4335750000000        -3.116804010258507E-011
   54.5466250000000        -3.141872674364229E-011
   54.6596750000000        -3.159578729017936E-011
   54.7727250000000        -3.169939526618241E-011
   54.8857750000000        -3.173774815815436E-011
   54.9988250000000        -3.173103053438417E-011
   55.1118750000000        -3.169936208167154E-011
   55.2249250000000        -3.167237786898369E-011
   55.3379750000000        -3.167924132634370E-011
   55.4510250000000        -3.175253052763747E-011
   55.5640750000000        -3.193148186028699E-011
   55.6771250000000        -3.224535072745798E-011
   55.7901750000000        -3.272576834473403E-011
   55.9032250000000        -3.339944914287373E-011
   56.0162750000000        -3.428697659024256E-011
   56.1293250000000        -3.539692593407770E-011
   56.2423750000000        -3.673036469703420E-011
   56.3554250000000        -3.827756055052616E-011
   56.4684750000000        -4.001782145259959E-011
   56.5815250000000        -4.192732196341579E-011
   56.6945750000000        -4.396186338858518E-011
   56.8076250000000        -4.607181303982754E-011
   56.9206750000000        -4.820017241572883E-011
   57.0337250000000        -5.028270640388523E-011
   57.1467750000000        -5.226040283119847E-011
   57.2598250000000        -5.405288078742089E-011
   57.3728750000000        -5.559721597100574E-011
   57.4859250000000        -5.682988220986860E-011
   57.5989750000000        -5.769367505740407E-011
   57.7120250000000        -5.813736787669723E-011
   57.8250750000000        -5.811634240061561E-011
   57.9381250000000        -5.761181549676841E-011
   58.0511750000000        -5.660903489357603E-011
   58.1642250000000        -5.511566552191615E-011
   58.2772750000000        -5.314875831487061E-011
   58.3903250000000        -5.074699121698590E-011
   58.5033750000000        -4.796139505729514E-011
   58.6164250000000        -4.486308522253563E-011
   58.7294750000000        -4.153127724316695E-011
   58.8425250000000        -3.806716059782547E-011
   58.9555750000000        -3.456611984190417E-011
   59.0686250000000        -3.113947079842454E-011
   59.1816750000000        -2.790277671703160E-011
   59.2947250000000        -2.496126337419971E-011
   59.4077750000000        -2.242126667847181E-011
   59.5208250000000        -2.038573191309027E-011
   59.6338750000000        -1.893754991038260E-011
   59.7469250000000        -1.814824471359627E-011
   59.8599750000000        -1.806825514519762E-011
   59.9730250000000        -1.872457066607633E-011
   60.0860750000000        -2.012742798530595E-011
   60.1991250000000        -2.225469577531237E-011
   60.3121750000000        -2.506543945767568E-011
   60.4252250000000        -2.848789791617967E-011
   60.5382750000000        -3.241861356234469E-011
   60.6513250000000        -3.674792731148048E-011
   60.7643750000000        -4.134189718960783E-011
   60.8774250000000        -4.603399655100953E-011
   60.9904750000000        -5.066581975343684E-011
   61.1035250000000        -5.506422367899923E-011
   61.2165750000000        -5.905698874600321E-011
   61.3296250000000        -6.247359981128768E-011
   61.4426750000000        -6.516800092488584E-011
   61.5557250000000        -6.699194451034974E-011
   61.6687750000000        -6.784710431917809E-011
   61.7818250000000        -6.764932135897128E-011
   61.8948750000000        -6.635467992208453E-011
   62.0079250000000        -6.395773166949444E-011
   62.1209750000000        -6.050355243176512E-011
   62.2340250000000        -5.606241809179875E-011
   62.3470750000000        -5.076756205700341E-011
   62.4601250000000        -4.478817287867346E-011
   62.5731750000000        -3.832247326657626E-011
   62.6862250000000        -3.161631789732051E-011
   62.7992750000000        -2.493154062775133E-011
   62.9123250000000        -1.854631638336826E-011
   63.0253750000000        -1.275593160528893E-011
   63.1384250000000        -7.841567647555792E-012
   63.2514750000000        -4.080544932882811E-012
   63.3645250000000        -1.711966962536697E-012
   63.4775750000000        -9.567720129926932E-013
   63.5906250000000        -1.965450648330566E-012
   63.7036750000000        -4.850702658428574E-012
   63.8167250000000        -9.650947189528135E-012
   63.9297750000000        -1.633682339386600E-011
   64.0428250000000        -2.480184254814540E-011
   64.1558750000000        -3.487175381803777E-011
   64.2689250000000        -4.629387248547908E-011
   64.3819750000000        -5.874300335009412E-011
   64.4950250000000        -7.184708619179930E-011
   64.6080750000000        -8.517361578251302E-011
   64.7211250000000        -9.825855536831732E-011
   64.8341750000000        -1.106169786728085E-010
   64.9472250000000        -1.217607645541100E-010
   65.0602750000000        -1.312209680103117E-010
   65.1733250000000        -1.385546610920603E-010
   65.2863750000000        -1.433761251170618E-010
   65.3994250000000        -1.453677099095218E-010
   65.5124750000000        -1.443017299533950E-010