 -0.847875000000000        -9.720568494482560E-018
 -0.734825000000000        -9.717080593176437E-018
 -0.621775000000000        -9.689144400818504E-018
 -0.508725000000000        -9.513815339430072E-018
 -0.395675000000000        -8.659166101804992E-018
 -0.282625000000000        -5.244902391003904E-018
 -0.169575000000000         6.262855723776977E-018
 -5.652500000000005E-002    3.952709302355804E-017
  5.652499999999994E-002    1.230140270681465E-016
  0.169575000000000         3.070620898296319E-016
  0.282625000000000         6.671770588497148E-016
  0.395675000000000         1.298888642566864E-015
  0.508725000000000         2.299457956138860E-015
  0.621775000000000         3.734882799838272E-015
  0.734825000000000         5.591759213566341E-015
  0.847875000000000         7.715114075716580E-015
  0.960925000000000         9.731138421311541E-015
   1.07397500000000         1.095726650249243E-014
   1.18702500000000         1.030221215918551E-014
   1.30007500000000         6.149895943454700E-015
   1.41312500000000        -3.764974414226193E-015
   1.52617500000000        -2.248997007568489E-014
   1.63922500000000        -5.399154639398876E-014
   1.75227500000000        -1.032987676150832E-013
   1.86532500000000        -1.766454897679110E-013
   1.97837500000000        -2.816030494554067E-013
   2.09142500000000        -4.272112025943759E-013
   2.20447500000000        -6.240915573925554E-013
   2.31752500000000        -8.845432137387401E-013
   2.43057500000000        -1.222601985503051E-012
   2.54362500000000        -1.654095272403849E-012
   2.65667500000000        -2.196651858718280E-012
   2.76972500000000        -2.869671537907115E-012
   2.88277500000000        -3.694280550289228E-012
   2.99582500000000        -4.693223899521783E-012
   3.10887500000000        -5.890729995422715E-012
   3.22192500000000        -7.312336973972648E-012
   3.33497500000000        -8.984709614487263E-012
   3.44802500000000        -1.093539557140591E-011
   3.56107500000000        -1.319256000970904E-011
   3.67412500000000        -1.578473178270630E-011
   3.78717500000000        -1.874050566354986E-011
   3.90022500000000        -2.208827877807889E-011
   4.01327500000000        -2.585593849824696E-011
   4.12632500000000        -3.007062672413726E-011
   4.23937500000000        -3.475846496259806E-011
   4.35242500000000        -3.994435255693716E-011
   4.46547500000000        -4.565176657916204E-011
   4.57852500000000        -5.190259784720015E-011
   4.69157500000000        -5.871704221359152E-011
   4.80462500000000        -6.611351506349602E-011
   4.91767500000000        -7.410861322016783E-011
   5.03072500000000        -8.271711025557223E-011
   5.14377500000000        -9.195197362937602E-011
   5.25682500000000        -1.018244196348382E-010
   5.36987500000000        -1.123439975768710E-010
   5.48292500000000        -1.235186620783502E-010
   5.59597500000000        -1.353548964429853E-010
   5.70902500000000        -1.478578083038949E-010
   5.82207500000000        -1.610312362010469E-010
   5.93512500000000        -1.748778299153580E-010
   6.04817500000000        -1.893991584659193E-010
   6.16122500000000        -2.045957866537552E-010
   6.27427500000000        -2.204673209895942E-010
   6.38732500000000        -2.370124515193140E-010
   6.50037500000000        -2.542290181207965E-010
   6.61342500000000        -2.721140435816558E-010
   6.72647500000000        -2.906637555543159E-010
   6.83952500000000        -3.098736390508856E-010
   6.95257500000000        -3.297384846966942E-010
   7.06562500000000        -3.502524648613794E-010
   7.17867500000000        -3.714091968182870E-010
   7.29172500000000        -3.932018911985453E-010
   7.40477500000000        -4.156234864872771E-010
   7.51782500000000        -4.386667801932910E-010
   7.63087500000000        -4.623246623238812E-010
   7.74392500000000        -4.865903197580635E-010
   7.85697500000000        -5.114574808560215E-010
   7.97002500000000        -5.369206328695481E-010
   8.08307500000000        -5.629752885199557E-010
   8.19612500000000        -5.896181928921117E-010
   8.30917500000000        -6.168475520561923E-010
   8.42222500000000        -6.446632098205840E-010
   8.53527500000000        -6.730667510035775E-010
   8.64832500000000        -7.020615911976585E-010
   8.76137500000000        -7.316529895981129E-010
   8.87442500000000        -7.618479832561949E-010
   8.98747500000000        -7.926552549992211E-010
   9.10052500000000        -8.240849450304388E-010
   9.21357500000000        -8.561483647324940E-010
   9.32662500000000        -8.888576792036944E-010
   9.43967500000000        -9.222255258496849E-010
   9.55272500000000        -9.562646107264573E-010
   9.66577500000000        -9.909872778196739E-010
   9.77882500000000        -1.026405074364434E-009
   9.89187500000000        -1.062528349016571E-009
   10.0049250000000        -1.099365874823180E-009
   10.1179750000000        -1.136924518467541E-009
   10.2310250000000        -1.175209020198140E-009
   10.3440750000000        -1.214221819520679E-009
   10.4571250000000        -1.253962991570288E-009
   10.5701750000000        -1.294430277799715E-009
   10.6832250000000        -1.335619234947958E-009
   10.7962750000000        -1.377523455126284E-009
   10.9093250000000        -1.420134897783656E-009
   11.0223750000000        -1.463444294400286E-009
   11.1354250000000        -1.507441593992729E-009
   11.2484750000000        -1.552116471203236E-009
   11.3615250000000        -1.597458854346100E-009
   11.4745750000000        -1.643459411620133E-009
   11.5876250000000        -1.690110054228360E-009
   11.7006750000000        -1.737404365210251E-009
   11.8137250000000        -1.785337929455957E-009
   11.9267750000000        -1.833908621242215E-009
   12.0398250000000        -1.883116767888448E-009
   12.1528750000000        -1.932965172694523E-009
   12.2659250000000        -1.983459068004473E-009
   12.3789750000000        -2.034605925599785E-009
   12.4920250000000        -2.086415181677497E-009
   12.6050750000000        -2.138897852111773E-009
   12.7181250000000        -2.192066066479585E-009
   12.8311750000000        -2.245932574757890E-009
   12.9442250000000        -2.300510201503038E-009
   13.0572750000000        -2.355811296378472E-009
   13.1703250000000        -2.411847210050311E-009
   13.2833750000000        -2.468627799213987E-009
   13.3964250000000        -2.526161011350292E-009
   13.5094750000000        -2.584452554146654E-009
   13.6225250000000        -2.643505644631181E-009
   13.7355750000000        -2.703320883213542E-009
   13.8486250000000        -2.763896232498904E-009
   13.9616750000000        -2.825227124268600E-009
   14.0747250000000        -2.887306654029915E-009
   14.1877750000000        -2.950125874288236E-009
   14.3008250000000        -3.013674183067642E-009
   14.4138750000000        -3.077939743656560E-009
   14.5269250000000        -3.142909979002798E-009
   14.6399750000000        -3.208572060938638E-009
   14.7530250000000        -3.274913371527740E-009
   14.8660750000000        -3.341921988018665E-009
   14.9791250000000        -3.409587074292264E-009
   15.0921750000000        -3.477899221843466E-009
   15.2052250000000        -3.546850699897065E-009
   15.3182750000000        -3.616435637946948E-009
   15.4313250000000        -3.686650107083715E-009
   15.5443750000000        -3.757492102128999E-009
   15.6574250000000        -3.828961456516251E-009
   15.7704750000000        -3.901059693356668E-009
   15.8835250000000        -3.973789797081002E-009
   15.9965750000000        -4.047155972308589E-009
   16.1096250000000        -4.121163359986254E-009
   16.2226750000000        -4.195817792358787E-009
   16.3357250000000        -4.271125528489596E-009
   16.4487750000000        -4.347093069520720E-009
   16.5618250000000        -4.423727017053599E-009
   16.6748750000000        -4.501033999048677E-009
   16.7879250000000        -4.579020668313851E-009
   16.9009750000000        -4.657693800787377E-009
   17.0140250000000        -4.737060439626307E-009
   17.1270750000000        -4.817128113484687E-009
   17.2401250000000        -4.897905150507540E-009
   17.3531750000000        -4.979400986551808E-009
   17.4662250000000        -5.061626524986929E-009
   17.5792750000000        -5.144594460561965E-009
   17.6923250000000        -5.228319608725302E-009
   17.8053750000000        -5.312819174965998E-009
   17.9184250000000        -5.398112971535688E-009
   18.0314750000000        -5.484223488320012E-009
   18.1445250000000        -5.571175951270207E-009
   18.2575750000000        -5.658998158017306E-009
   18.3706250000000        -5.747720292914393E-009
   18.4836750000000        -5.837374517912599E-009
   18.5967250000000        -5.927994560279725E-009
   18.7097750000000        -6.019615075182258E-009
   18.8228250000000        -6.112271017828308E-009
   18.9358750000000        -6.205996871782498E-009
   19.0489250000000        -6.300825908498314E-009
   19.1619750000000        -6.396789371230724E-009
   19.2750250000000        -6.493915724608694E-009
   19.3880750000000        -6.592229903630881E-009
   19.5011250000000        -6.691752709617037E-009
   19.6141750000000        -6.792500239640799E-009
   19.7272250000000        -6.894483513979485E-009
   19.8402750000000        -6.997708199789189E-009
   19.9533250000000        -7.102174538062842E-009
   20.0663750000000        -7.207877424143570E-009
   20.1794250000000        -7.314806698248520E-009
   20.2924750000000        -7.422947550071399E-009
   20.4055250000000        -7.532281151110097E-009
   20.5185750000000        -7.642785369334996E-009
   20.6316250000000        -7.754435634737580E-009
   20.7446750000000        -7.867205881490575E-009
   20.8577250000000        -7.981069540820746E-009
   20.9707750000000        -8.096000581121029E-009
   21.0838250000000        -8.211974513695283E-009
   21.1968750000000        -8.328969359402670E-009
   21.3099250000000        -8.446966554826908E-009
   21.4229750000000        -8.565951727136264E-009
   21.5360250000000        -8.685915354014158E-009
   21.6490750000000        -8.806853263975605E-009
   21.7621250000000        -8.928767001840085E-009
   21.8751750000000        -9.051663984876838E-009
   21.9882250000000        -9.175557529600979E-009
   22.1012750000000        -9.300466692558940E-009
   22.2143250000000        -9.426415979603979E-009
   22.3273750000000        -9.553434915628574E-009
   22.4404250000000        -9.681557499774444E-009
   22.5534750000000        -9.810821585664054E-009
   22.6665250000000        -9.941268196479270E-009
   22.7795750000000        -1.007294083386309E-008
   22.8926250000000        -1.020588474769111E-008
   23.0056750000000        -1.034014626007500E-008
   23.1187250000000        -1.047577213417626E-008
   23.2317750000000        -1.061280900394375E-008
   23.3448250000000        -1.075130287601210E-008
   23.4578750000000        -1.089129874054396E-008
   23.5709250000000        -1.103284024914821E-008
   23.6839750000000        -1.117596952567681E-008
   23.7970250000000        -1.132072701861578E-008
   23.9100750000000        -1.146715148126537E-008
   24.0231250000000        -1.161527998618361E-008
   24.1361750000000        -1.176514796353101E-008
   24.2492250000000        -1.191678932082594E-008
   24.3622750000000        -1.207023653175219E-008
   24.4753250000000        -1.222552072170267E-008
   24.5883750000000        -1.238267172258382E-008
   24.7014250000000        -1.254171809576757E-008
   24.8144750000000        -1.270268709228722E-008
   24.9275250000000        -1.286560455094592E-008
   25.0405750000000        -1.303049473736652E-008
   25.1536250000000        -1.319738011553964E-008
   25.2666750000000        -1.336628107502459E-008
   25.3797250000000        -1.353721561570452E-008
   25.4927750000000        -1.371019901504170E-008
   25.6058250000000        -1.388524348116587E-008
   25.7188750000000        -1.406235783619367E-008
   25.8319250000000        -1.424154723927271E-008
   25.9449750000000        -1.442281297681329E-008
   26.0580250000000        -1.460615234294882E-008
   26.1710750000000        -1.479155862029264E-008
   26.2841250000000        -1.497902117905884E-008
   26.3971750000000        -1.516852573081571E-008
   26.5102250000000        -1.536005468113618E-008
   26.6232750000000        -1.555358763648141E-008
   26.7363250000000        -1.574910204041515E-008
   26.8493750000000        -1.594657391593084E-008
   26.9624250000000        -1.614597869328281E-008
   27.0754750000000        -1.634729209389130E-008
   27.1885250000000        -1.655049107507724E-008
   27.3015750000000        -1.675555473460489E-008
   27.4146250000000        -1.696246524407194E-008
   27.5276750000000        -1.717120866229273E-008
   27.6407250000000        -1.738177567880068E-008
   27.7537750000000        -1.759416222095063E-008
   27.8668250000000        -1.780836992830583E-008
   27.9798750000000        -1.802440642789748E-008
   28.0929250000000        -1.824228543768744E-008
   28.2059750000000        -1.846202669487434E-008
   28.3190250000000        -1.868365566804595E-008
   28.4320750000000        -1.890720309239079E-008
   28.5451250000000        -1.913270438067282E-008
   28.6581750000000        -1.936019882444609E-008
   28.7712250000000        -1.958972872733561E-008
   28.8842750000000        -1.982133844526420E-008
   28.9973250000000        -2.005507338163027E-008
   29.1103750000000        -2.029097894387175E-008
   29.2234250000000        -2.052909955380072E-008
   29.3364750000000        -2.076947771436444E-008
   29.4495250000000        -2.101215318505080E-008
   29.5625750000000        -2.125716225264013E-008
   29.6756250000000        -2.150453718315916E-008
   29.7886750000000        -2.175430580938402E-008
   29.9017250000000        -2.200649130789751E-008
   30.0147750000000        -2.226111216803707E-008
   30.1278250000000        -2.251818232514419E-008
   30.2408750000000        -2.277771141788068E-008
   30.3539250000000        -2.303970526475694E-008
   30.4669750000000        -2.330416641891946E-008
   30.5800250000000        -2.357109480866709E-008
   30.6930750000000        -2.384048844521411E-008
   30.8061250000000        -2.411234419684048E-008
   30.9191750000000        -2.438665849613816E-008
   31.0322250000000        -2.466342805294917E-008
   31.1452750000000        -2.494265048660252E-008
   31.2583250000000        -2.522432486157016E-008
   31.3713750000000        -2.550845210563115E-008
   31.4844250000000        -2.579503529927978E-008
   31.5974750000000        -2.608407982225572E-008
   31.7105250000000        -2.637559334753968E-008
   31.8235750000000        -2.666958569822815E-008
   31.9366250000000        -2.696606856811785E-008
   32.0496750000000        -2.726505511451529E-008
   32.1627250000000        -2.756655947205497E-008
   32.2757750000000        -2.787059614910572E-008
   32.3888250000000        -2.817717943131093E-008
   32.5018750000000        -2.848632272909734E-008
   32.6149250000000        -2.879803793111892E-008
   32.7279750000000        -2.911233480642299E-008
   32.8410250000000        -2.942922048387020E-008
   32.9540750000000        -2.974869902229408E-008
   33.0671250000000        -3.007077104309624E-008
   33.1801750000000        -3.039543357088836E-008
   33.2932250000000        -3.072267999773926E-008
   33.4062750000000        -3.105250014037589E-008
   33.5193250000000        -3.138488051463276E-008
   33.6323750000000        -3.171980473197341E-008
   33.7454250000000        -3.205725403960315E-008
   33.8584750000000        -3.239720795710946E-008
   33.9715250000000        -3.273964503454430E-008
   34.0845750000000        -3.308454368958315E-008
   34.1976250000000        -3.343188307742058E-008
   34.3106750000000        -3.378164399518577E-008
   34.4237250000000        -3.413380976876711E-008
   34.5367750000000        -3.448836710207300E-008
   34.6498250000000        -3.484530683819517E-008
   34.7628750000000        -3.520462464333846E-008
   34.8759250000000        -3.556632156595698E-008
   34.9889750000000        -3.593040445632091E-008
   35.1020250000000        -3.629688621543620E-008
   35.2150750000000        -3.666578591192188E-008
   35.3281250000000        -3.703712871548588E-008
   35.4411750000000        -3.741094568197976E-008
   35.5542250000000        -3.778727338561819E-008
   35.6672750000000        -3.816615341557412E-008
   35.7803250000000        -3.854763175967810E-008
   35.8933750000000        -3.893175812042710E-008
   36.0064250000000        -3.931858513476780E-008
   36.1194750000000        -3.970816762163357E-008
   36.2325250000000        -4.010056176838391E-008
   36.3455750000000        -4.049582441876028E-008
   36.4586250000000        -4.089401236725696E-008
   36.5716750000000        -4.129518176681062E-008
   36.6847250000000        -4.169938765483347E-008
   36.7977750000000        -4.210668358268635E-008
   36.9108250000000        -4.251712140602555E-008
   37.0238750000000        -4.293075117176123E-008
   37.1369250000000        -4.334762118008322E-008
   37.2499750000000        -4.376777815445837E-008
   37.3630250000000        -4.419126749825884E-008
   37.4760750000000        -4.461813364481293E-008
   37.5891250000000        -4.504842046245025E-008
   37.7021750000000        -4.548217167363230E-008
   37.8152250000000        -4.591943124802474E-008
   37.9282750000000        -4.636024376761604E-008
   38.0413250000000        -4.680465469976699E-008
   38.1543750000000        -4.725271054613554E-008
   38.2674250000000        -4.770445887830165E-008
   38.3804750000000        -4.815994821030150E-008
   38.4935250000000        -4.861922769789782E-008
   38.6065750000000        -4.908234667627281E-008
   38.7196250000000        -4.954935405023778E-008
   38.8326750000000        -5.002029751205601E-008
   38.9457250000000        -5.049522268394653E-008
   39.0587750000000        -5.097417216491568E-008
   39.1718250000000        -5.145718451130916E-008
   39.2848750000000        -5.194429327722255E-008
   39.3979250000000        -5.243552607950469E-008
   39.5109750000000        -5.293090376093968E-008
   39.6240250000000        -5.343043974369579E-008
   39.7370750000000        -5.393413957989104E-008
   39.8501250000000        -5.444200072470161E-008
   39.9631750000000        -5.495401260868875E-008
   40.0762250000000        -5.547015698893516E-008
   40.1892750000000        -5.599040859378283E-008
   40.3023250000000        -5.651473606717639E-008
   40.4153750000000        -5.704310321729953E-008
   40.5284250000000        -5.757547047024534E-008
   40.6414750000000        -5.811179652577876E-008
   40.7545250000000        -5.865204017498033E-008
   40.8675750000000        -5.919616216247777E-008
   40.9806250000000        -5.974412711554799E-008
   41.0936750000000        -6.029590532920941E-008
   41.2067250000000        -6.085147448152218E-008
   41.3197750000000        -6.141082109842091E-008
   41.4328250000000        -6.197394175999079E-008
   41.5458750000000        -6.254084396289497E-008
   41.6589250000000        -6.311154662951527E-008
   41.7719750000000        -6.368608021224284E-008
   41.8850250000000        -6.426448638686037E-008
   41.9980750000000        -6.484681734674328E-008
   42.1111250000000        -6.543313472381370E-008
   42.2241750000000        -6.602350816219982E-008
   42.3372250000000        -6.661801360844970E-008
   42.4502750000000        -6.721673139177922E-008
   42.5633250000000        -6.781974416908001E-008
   42.6763750000000        -6.842713482110546E-008
   42.7894250000000        -6.903898440172690E-008
   42.9024750000000        -6.965537020561410E-008
   43.0155250000000        -7.027636405678695E-008
   43.1285750000000        -7.090203089376725E-008
   43.2416250000000        -7.153242769694728E-008
   43.3546750000000        -7.216760284021658E-008
   43.4677250000000        -7.280759586404177E-008
   43.5807750000000        -7.345243769164823E-008
   43.6938250000000        -7.410215127972264E-008
   43.8068750000000        -7.475675266938702E-008
   43.9199250000000        -7.541625237266975E-008
   44.0329750000000        -7.608065704342078E-008
   44.1460250000000        -7.674997135034084E-008
   44.2590750000000        -7.742419993910081E-008
   44.3721250000000        -7.810334935662339E-008
   44.4851750000000        -7.878742990608289E-008
   44.5982250000000        -7.947645725885611E-008
   44.7112750000000        -8.017045373937407E-008
   44.8243250000000        -8.086944924604846E-008
   44.9373750000000        -8.157348166698552E-008
   45.0504250000000        -8.228259681053876E-008
   45.1634750000000        -8.299684779544519E-008
   45.2765250000000        -8.371629388630913E-008
   45.3895750000000        -8.444099885705173E-008
   45.5026250000000        -8.517102887490823E-008
   45.6156750000000        -8.590645003645232E-008
   45.7287250000000        -8.664732564328236E-008
   45.8417750000000        -8.739371330470381E-008
   45.9548250000000        -8.814566204340289E-008
   46.0678750000000        -8.890320953567724E-008
   46.1809250000000        -8.966637960391406E-008
   46.2939750000000        -9.043518014116682E-008
   46.4070250000000        -9.120960156994797E-008
   46.5200750000000        -9.198961595107125E-008
   46.6331250000000        -9.277517680409686E-008
   46.7461750000000        -9.356621976448353E-008
   46.8592250000000        -9.436266401488473E-008
   46.9722750000000        -9.516441457384818E-008
   47.0853250000000        -9.597136527848395E-008
   47.1983750000000        -9.678340251427232E-008
   47.3114250000000        -9.760040944532384E-008
   47.4244750000000        -9.842227066702260E-008
   47.5375250000000        -9.924887710489608E-008
   47.6505750000000        -1.000801308933938E-007
   47.7636250000000        -1.009159501366503E-007
   47.8766750000000        -1.017562732126389E-007
   47.9897250000000        -1.026010625031911E-007
   48.1027750000000        -1.034503073306022E-007
   48.2158250000000        -1.043040259205475E-007
   48.3288750000000        -1.051622662750008E-007
   48.4419250000000        -1.060251058391675E-007
   48.5549750000000        -1.068926499668328E-007
   48.6680250000000        -1.077650291340999E-007
   48.7810750000000        -1.086423949937374E-007
   48.8941250000000        -1.095249153933563E-007
   49.0071750000000        -1.104127685432499E-007
   49.1202250000000        -1.113061365165601E-007
   49.2332750000000        -1.122051983869267E-007
   49.3463250000000        -1.131101232709118E-007
   49.4593750000000        -1.140210636126762E-007
   49.5724250000000        -1.149381490122948E-007
   49.6854750000000        -1.158614809293884E-007
   49.7985250000000        -1.167911285433326E-007
   49.9115750000000        -1.177271260361441E-007
   50.0246250000000        -1.186694714984134E-007
   50.1376750000000        -1.196181275871294E-007
   50.2507250000000        -1.205730240167692E-007
   50.3637750000000        -1.215340618618343E-007
   50.4768250000000        -1.225011195556958E-007
   50.5898750000000        -1.234740604040294E-007
   50.7029250000000        -1.244527413510791E-007
   50.8159750000000        -1.254370226122773E-007
   50.9290250000000        -1.264267778048077E-007
   51.0420750000000        -1.274219040407210E-007
   51.1551250000000        -1.284223315757064E-007
   51.2681750000000        -1.294280324318889E-007
   51.3812250000000        -1.304390275465638E-007
   51.4942750000000        -1.314553919918188E-007
   51.6073250000000        -1.324772578206772E-007
   51.7203750000000        -1.335048143484504E-007
   51.8334250000000        -1.345383055442378E-007
   51.9464750000000        -1.355780245793330E-007
   52.0595250000000        -1.366243055082277E-007
   52.1725750000000        -1.376775123334081E-007
   52.2856250000000        -1.387380257410572E-007
   52.3986750000000        -1.398062281061729E-007
   52.5117250000000        -1.408824872396405E-007
   52.6247750000000        -1.419671396638742E-007
   52.7378250000000        -1.430604741636082E-007
   52.8508750000000        -1.441627164702581E-007
   52.9639250000000        -1.452740158457956E-007
   53.0769750000000        -1.463944344038806E-007
   53.1900250000000        -1.475239398962992E-007
   53.3030750000000        -1.486624025183370E-007
   53.4161250000000        -1.498095961992151E-007
   53.5291750000000        -1.509652046871188E-007
   53.6422250000000        -1.521288323833181E-007
   53.7552750000000        -1.533000198328351E-007
   53.8683250000000        -1.544782633583856E-007
   53.9813750000000        -1.556630382581587E-007
   54.0944250000000        -1.568538246449874E-007
   54.2074750000000        -1.580501348116792E-007
   54.3205250000000        -1.592515409004687E-007
   54.4335750000000        -1.604577015944011E-007
   54.5466250000000        -1.616683862910223E-007
   54.6596750000000        -1.628834954820443E-007
   54.7727250000000        -1.641030759489860E-007
   54.8857750000000        -1.653273296911323E-007
   54.9988250000000        -1.665566155802039E-007
   55.1118750000000        -1.677914431321369E-007
   55.2249250000000        -1.690324580834837E-007
   55.3379750000000        -1.702804198362871E-007
   55.4510250000000        -1.715361712826021E-007
   55.5640750000000        -1.728006018813998E-007
   55.6771250000000        -1.740746053538296E-007
   55.7901750000000        -1.753590336538893E-007
   55.9032250000000        -1.766546492664151E-007
   56.0162750000000        -1.779620781293792E-007
   56.1293250000000        -1.792817656027025E-007
   56.2423750000000        -1.806139380070937E-007
   56.3554250000000        -1.819585721932427E-007
   56.4684750000000        -1.833153753782725E-007
   56.5815250000000        -1.846837772223352E-007
   56.6945750000000        -1.860629356596011E-007
   56.8076250000000        -1.874517574370586E-007
   56.9206750000000        -1.888489336992152E-007
   57.0337250000000        -1.902529902176888E-007
   57.1467750000000        -1.916623511352592E-007
   57.2598250000000        -1.930754142510956E-007
   57.3728750000000        -1.944906352319181E-007
   57.4859250000000        -1.959066173592558E-007
   57.5989750000000        -1.973222028819018E-007
   57.7120250000000        -1.987365615727922E-007
   57.8250750000000        -2.001492718413773E-007
   57.9381250000000        -2.015603896538123E-007
   58.0511750000000        -2.029705006451176E-007
   58.1642250000000        -2.043807512564337E-007
   58.2772750000000        -2.057928551887416E-007
   58.3903250000000        -2.072090725325197E-007
   58.5033750000000        -2.086321597640740E-007
   58.6164250000000        -2.100652901281487E-007
   58.7294750000000        -2.115119453127304E-007
   58.8425250000000        -2.129757807037958E-007
   58.9555750000000        -2.144604679935226E-007
   59.0686250000000        -2.159695204188598E-007
   59.1816750000000        -2.175061070638497E-007
   59.2947250000000        -2.190728639718408E-007
   59.4077750000000        -2.206717105563475E-007
   59.5208250000000        -2.223036804266769E-007
   59.6338750000000        -2.239687759220350E-007
   59.7469250000000        -2.256658554670954E-007
   59.8599750000000        -2.273925621448928E-007
   59.9730250000000        -2.291453008495591E-007
   60.0860750000000        -2.309192698251023E-007
   60.1991250000000        -2.327085504588653E-007
   60.3121750000000        -2.345062569474836E-007
   60.4252250000000        -2.363047448926649E-007
   60.5382750000000        -2.380958751178082E-007
   60.6513250000000        -2.398713261520388E-007
   60.7643750000000        -2.416229461805738E-007
   60.8774250000000        -2.433431325177582E-007
   60.9904750000000        -2.450252243807038E-007
   61.1035250000000        -2.466638929701749E-007
   61.2165750000000        -2.482555113948840E-007
   61.3296250000000        -2.497984863978453E-007
   61.4426750000000        -2.512935338675700E-007
   61.5557250000000        -2.527438810299387E-007
   61.6687750000000        -2.541553798520181E-007
   61.7818250000000        -2.555365186487515E-007
   61.8948750000000        -2.568983223629403E-007
   62.0079250000000        -2.582541356532313E-007
   62.1209750000000        -2.596192878156705E-007
   62.2340250000000        -2.610106432663647E-007
   62.3470750000000        -2.624460466692616E-007
   62.4601250000000        -2.639436770393488E-007
   62.5731750000000        -2.655213302028892E-007
   62.6862250000000        -2.671956536151612E-007
   62.7992750000000        -2.689813615557677E-007
   62.9123250000000        -2.708904618837042E-007
   63.0253750000000        -2.729315273679715E-007
   63.1384250000000        -2.751090457005146E-007
   63.2514750000000        -2.774228813692752E-007
   63.3645250000000        -2.798678807318189E-007
   63.4775750000000        -2.824336480580408E-007
   63.5906250000000        -2.851045152289907E-007
   63.7036750000000        -2.878597216536224E-007
   63.8167250000000        -2.906738133401079E-007
   63.9297750000000        -2.935172617636453E-007
   64.0428250000000        -2.963572940873830E-007
   64.1558750000000        -2.991589170528657E-007
   64.2689250000000        -3.018861074829342E-007
   64.3819750000000        -3.045031336179955E-007
   64.4950250000000        -3.069759635997428E-007
   64.6080750000000        -3.092737106927314E-007
   64.7211250000000        -3.113700599269131E-007
   64.8341750000000        -3.132446176879511E-007
   64.9472250000000        -3.148841249957320E-007
   65.0602750000000        -3.162834767562900E-007
   65.1733250000000        -3.174464933309903E-007
   65.2863750000000        -3.183863972884744E-007
   65.3994250000000        -3.191259571869537E-007
   65.5124750000000        -3.196972712456204E-007