 -0.847875000000000         9.277669058470731E-024
 -0.734825000000000         1.365529209942315E-023
 -0.621775000000000         1.060582942195541E-022
 -0.508725000000000         8.059967134996844E-022
 -0.395675000000000         4.464822811349394E-021
 -0.282625000000000         1.976684363174320E-020
 -0.169575000000000         7.362752471468523E-020
 -5.652500000000005E-002    2.371114545210406E-019
  5.652499999999994E-002    6.724479423215652E-019
  0.169575000000000         1.705149228712782E-018
  0.282625000000000         3.919613485461172E-018
  0.395675000000000         8.271794092937746E-018
  0.508725000000000         1.621238489663587E-017
  0.621775000000000         2.981242433254219E-017
  0.734825000000000         5.188522967921679E-017
  0.847875000000000         8.609460200550251E-017
  0.960925000000000         1.370366010840427E-016
   1.07397500000000         2.102826716675329E-016
   1.18702500000000         3.123746776404069E-016
   1.30007500000000         4.507657180894014E-016
   1.41312500000000         6.337072612358255E-016
   1.52617500000000         8.700828653267647E-016
   1.63922500000000         1.169205037459807E-015
   1.75227500000000         1.540585301437462E-015
   1.86532500000000         1.993692756386011E-015
   1.97837500000000         2.537721545709391E-015
   2.09142500000000         3.181363062923232E-015
   2.20447500000000         3.932614019681952E-015
   2.31752500000000         4.798610720178996E-015
   2.43057500000000         5.785505862531160E-015
   2.54362500000000         6.898347070784743E-015
   2.65667500000000         8.141029493868017E-015
   2.76972500000000         9.516191594208765E-015
   2.88277500000000         1.102517592404390E-014
   2.99582500000000         1.266795414357306E-014
   3.10887500000000         1.444306242266835E-014
   3.22192500000000         1.634750923726394E-014
   3.33497500000000         1.837671206539919E-014
   3.44802500000000         2.052443277939110E-014
   3.56107500000000         2.278275434974152E-014
   3.67412500000000         2.514213114187380E-014
   3.78717500000000         2.759147614267032E-014
   3.90022500000000         3.011837571009006E-014
   4.01327500000000         3.270942607137789E-014
   4.12632500000000         3.535066544504832E-014
   4.23937500000000         3.802809604777730E-014
   4.35242500000000         4.072840176528961E-014
   4.46547500000000         4.343965741224454E-014
   4.57852500000000         4.615217439241422E-014
   4.69157500000000         4.885925751621842E-014
   4.80462500000000         5.155796867847941E-014
   4.91767500000000         5.424979217826545E-014
   5.03072500000000         5.694112738171212E-014
   5.14377500000000         5.964361241672633E-014
   5.25682500000000         6.237421864916971E-014
   5.36987500000000         6.515501080713292E-014
   5.48292500000000         6.801271913190441E-014
   5.59597500000000         7.097796779163605E-014
   5.70902500000000         7.408426889138736E-014
   5.82207500000000         7.736678380628319E-014
   5.93512500000000         8.086086932050425E-014
   6.04817500000000         8.460056399369234E-014
   6.16122500000000         8.861691457034925E-014
   6.27427500000000         9.293637882167596E-014
   6.38732500000000         9.757925997532193E-014
   6.50037500000000         1.025582729589748E-013
   6.61342500000000         1.078773786808040E-013
   6.72647500000000         1.135308370829888E-013
   6.83952500000000         1.195026066326435E-013
   6.95257500000000         1.257661136930545E-013
   7.06562500000000         1.322843787858372E-013
   7.17867500000000         1.390106329251402E-013
   7.29172500000000         1.458893026405882E-013
   7.40477500000000         1.528574479568890E-013
   7.51782500000000         1.598465175241263E-013
   7.63087500000000         1.667845535075340E-013
   7.74392500000000         1.735986637781266E-013
   7.85697500000000         1.802176560566501E-013
   7.97002500000000         1.865748457407708E-013
   8.08307500000000         1.926109574976241E-013
   8.19612500000000         1.982768288428574E-013
   8.30917500000000         2.035360005101341E-013
   8.42222500000000         2.083669432252093E-013
   8.53527500000000         2.127648769866341E-013
   8.64832500000000         2.167429778157318E-013
   8.76137500000000         2.203330402204862E-013
   8.87442500000000         2.235853976529710E-013
   8.98747500000000         2.265680383459997E-013
   9.10052500000000         2.293650386971598E-013
   9.21357500000000         2.320742418099665E-013
   9.32662500000000         2.348042912564005E-013
   9.43967500000000         2.376711081613007E-013
   9.55272500000000         2.407940202358152E-013
   9.66577500000000         2.442915985434114E-013
   9.77882500000000         2.482774385208800E-013
   9.89187500000000         2.528561290571117E-013
   10.0049250000000         2.581195185763796E-013
   10.1179750000000         2.641435414998268E-013
   10.2310250000000         2.709857144178880E-013
   10.3440750000000         2.786834799892937E-013
   10.4571250000000         2.872534229272741E-013
   10.5701750000000         2.966914872263217E-013
   10.6832250000000         3.069741221990111E-013
   10.7962750000000         3.180603543497833E-013
   10.9093250000000         3.298946547830662E-013
   11.0223750000000         3.424104744226708E-013
   11.1354250000000         3.555342787822163E-013
   11.2484750000000         3.691898894326309E-013
   11.3615250000000         3.833028958855842E-013
   11.4745750000000         3.978049307164487E-013
   11.5876250000000         4.126376160682151E-013
   11.7006750000000         4.277559573540736E-013
   11.8137250000000         4.431310171879144E-013
   11.9267750000000         4.587517851420967E-013
   12.0398250000000         4.746260926066362E-013
   12.1528750000000         4.907805285368060E-013
   12.2659250000000         5.072594355166420E-013
   12.3789750000000         5.241229205225733E-013
   12.4920250000000         5.414440590759469E-013
   12.6050750000000         5.593054060958190E-013
   12.7181250000000         5.777949717938903E-013
   12.8311750000000         5.970018427202481E-013
   12.9442250000000         6.170117514892006E-013
   13.0572750000000         6.379027328916640E-013
   13.1703250000000         6.597411932873879E-013
   13.2833750000000         6.825784347754462E-013
   13.3964250000000         7.064480557955016E-013
   13.5094750000000         7.313642537701920E-013
   13.6225250000000         7.573211550817710E-013
   13.7355750000000         7.842933006898009E-013
   13.8486250000000         8.122372430181103E-013
   13.9616750000000         8.410941971496886E-013
   14.0747250000000         8.707937254861992E-013
   14.1877750000000         9.012581689067860E-013
   14.3008250000000         9.324076938532658E-013
   14.4138750000000         9.641656899143347E-013
   14.5269250000000         9.964641580223360E-013
   14.6399750000000         1.029248899176674E-012
   14.7530250000000         1.062484078384757E-012
   14.8660750000000         1.096156099716415E-012
   14.9791250000000         1.130276275851104E-012
   15.0921750000000         1.164882364623507E-012
   15.2052250000000         1.200038673703125E-012
   15.3182750000000         1.235834818284599E-012
   15.4313250000000         1.272383074180449E-012
   15.5443750000000         1.309814493331287E-012
   15.6574250000000         1.348273948949384E-012
   15.7704750000000         1.387914365696922E-012
   15.8835250000000         1.428890457920651E-012
   15.9965750000000         1.471352330245695E-012
   16.1096250000000         1.515439182260903E-012
   16.2226750000000         1.561273573947436E-012
   16.3357250000000         1.608956582733212E-012
   16.4487750000000         1.658563987493920E-012
   16.5618250000000         1.710143817236806E-012
   16.6748750000000         1.763715347314478E-012
   16.7879250000000         1.819269573863641E-012
   16.9009750000000         1.876771181041046E-012
   17.0140250000000         1.936161856825625E-012
   17.1270750000000         1.997364696185083E-012
   17.2401250000000         2.060289584754855E-012
   17.3531750000000         2.124839139211405E-012
   17.4662250000000         2.190914923716359E-012
   17.5792750000000         2.258423487694480E-012
   17.6923250000000         2.327282056867895E-012
   17.8053750000000         2.397423427907563E-012
   17.9184250000000         2.468799805611481E-012
   18.0314750000000         2.541385386207053E-012
   18.1445250000000         2.615177562000415E-012
   18.2575750000000         2.690196580300715E-012
   18.3706250000000         2.766483814751624E-012
   18.4836750000000         2.844098600278203E-012
   18.5967250000000         2.923113822201268E-012
   18.7097750000000         3.003610597960113E-012
   18.8228250000000         3.085672202633084E-012
   18.9358750000000         3.169377697795446E-012
   19.0489250000000         3.254795556815354E-012
   19.1619750000000         3.341977694981304E-012
   19.2750250000000         3.430954297279331E-012
   19.3880750000000         3.521729747440904E-012
   19.5011250000000         3.614279912886675E-012
   19.6141750000000         3.708551104881091E-012
   19.7272250000000         3.804460776034406E-012
   19.8402750000000         3.901900034999798E-012
   19.9533250000000         4.000737870331024E-012
   20.0663750000000         4.100827072847713E-012
   20.1794250000000         4.202011433338925E-012
   20.2924750000000         4.304134003633815E-012
   20.4055250000000         4.407045926128744E-012
   20.5185750000000         4.510615453201711E-012
   20.6316250000000         4.614736600807883E-012
   20.7446750000000         4.719336946667483E-012
   20.8577250000000         4.824384169882660E-012
   20.9707750000000         4.929890846691846E-012
   21.0838250000000         5.035917250861324E-012
   21.1968750000000         5.142571822112761E-012
   21.3099250000000         5.250009313389004E-012
   21.4229750000000         5.358426571710124E-012
   21.5360250000000         5.468056096954549E-012
   21.6490750000000         5.579157668623443E-012
   21.7621250000000         5.692008438115266E-012
   21.8751750000000         5.806891928866953E-012
   21.9882250000000         5.924086492852412E-012
   22.1012750000000         6.043853816882257E-012
   22.2143250000000         6.166428036262679E-012
   22.3273750000000         6.292006031035233E-012
   22.4404250000000         6.420739338968018E-012
   22.5534750000000         6.552728169422428E-012
   22.6665250000000         6.688017764160662E-012
   22.7795750000000         6.826597328140719E-012
   22.8926250000000         6.968401537163118E-012
   23.0056750000000         7.113314551598430E-012
   23.1187250000000         7.261176379754088E-012
   23.2317750000000         7.411791201345678E-012
   23.3448250000000         7.564937330265611E-012
   23.4578750000000         7.720378266153395E-012
   23.5709250000000         7.877874278873152E-012
   23.6839750000000         8.037194113234839E-012
   23.7970250000000         8.198126116934454E-012
   23.9100750000000         8.360488427878253E-012
   24.0231250000000         8.524137589149834E-012
   24.1361750000000         8.688975367349024E-012
   24.2492250000000         8.854953377760665E-012
   24.3622750000000         9.022075409847211E-012
   24.4753250000000         9.190397233132326E-012
   24.5883750000000         9.360024127534361E-012
   24.7014250000000         9.531106054743621E-012
   24.8144750000000         9.703830901428994E-012
   24.9275250000000         9.878416017781371E-012
   25.0405750000000         1.005509853745884E-011
   25.1536250000000         1.023412492496828E-011
   25.2666750000000         1.041574029433921E-011
   25.3797250000000         1.060017799117835E-011
   25.4927750000000         1.078764995872223E-011
   25.6058250000000         1.097833836767916E-011
   25.7188750000000         1.117238891337346E-011
   25.8319250000000         1.136990607721607E-011
   25.9449750000000         1.157095058826293E-011
   26.0580250000000         1.177553920439220E-011
   26.1710750000000         1.198364666646266E-011
   26.2841250000000         1.219520983531953E-011
   26.3971750000000         1.241013364935147E-011
   26.5102250000000         1.262829862172090E-011
   26.6232750000000         1.284956932508040E-011
   26.7363250000000         1.307380348226004E-011
   26.8493750000000         1.330086114024029E-011
   26.9624250000000         1.353061339998866E-011
   27.0754750000000         1.376295026456365E-011
   27.1885250000000         1.399778718028897E-011
   27.3015750000000         1.423507003622845E-011
   27.4146250000000         1.447477826259384E-011
   27.5276750000000         1.471692614781838E-011
   27.6407250000000         1.496156220186476E-011
   27.7537750000000         1.520876676877894E-011
   27.8668250000000         1.545864808962710E-011
   27.9798750000000         1.571133709483013E-011
   28.0929250000000         1.596698129031135E-011
   28.2059750000000         1.622573812982510E-011
   28.3190250000000         1.648776821162600E-011
   28.4320750000000         1.675322873136312E-011
   28.5451250000000         1.702226746351563E-011
   28.6581750000000         1.729501761656768E-011
   28.7712250000000         1.757159376558026E-011
   28.8842750000000         1.785208902898503E-011
   28.9973250000000         1.813657355712538E-011
   29.1103750000000         1.842509436008310E-011
   29.2234250000000         1.871767637427648E-011
   29.3364750000000         1.901432476167055E-011
   29.4495250000000         1.931502812045710E-011
   29.5625750000000         1.961976252151273E-011
   29.6756250000000         1.992849606377078E-011
   29.7886750000000         2.024119370546928E-011
   29.9017250000000         2.055782212096289E-011
   30.0147750000000         2.087835432910633E-011
   30.1278250000000         2.120277374375735E-011
   30.2408750000000         2.153107758998638E-011
   30.3539250000000         2.186327935608822E-011
   30.4669750000000         2.219941022491828E-011
   30.5800250000000         2.253951934886602E-011
   30.6930750000000         2.288367300711370E-011
   30.8061250000000         2.323195258385897E-011
   30.9191750000000         2.358445155232384E-011
   31.0322250000000         2.394127157284581E-011
   31.1452750000000         2.430251791738981E-011
   31.2583250000000         2.466829454911041E-011
   31.3713750000000         2.503869901014286E-011
   31.4844250000000         2.541381755610581E-011
   31.5974750000000         2.579372072027220E-011
   31.7105250000000         2.617845963498769E-011
   31.8235750000000         2.656806341329839E-011
   31.9366250000000         2.696253752967526E-011
   32.0496750000000         2.736186361690842E-011
   32.1627250000000         2.776600049385061E-011
   32.2757750000000         2.817488644414477E-011
   32.3888250000000         2.858844263059076E-011
   32.5018750000000         2.900657746030672E-011
   32.6149250000000         2.942919164881051E-011
   32.7279750000000         2.985618372003806E-011
   32.8410250000000         3.028745559872536E-011
   32.9540750000000         3.072291810542402E-011
   33.0671250000000         3.116249593462245E-011
   33.1801750000000         3.160613201442494E-011
   33.2932250000000         3.205379096079872E-011
   33.4062750000000         3.250546151241801E-011
   33.5193250000000         3.296115788040548E-011
   33.6323750000000         3.342091997261220E-011
   33.7454250000000         3.388481255704373E-011
   33.8584750000000         3.435292339287179E-011
   33.9715250000000         3.482536051633935E-011
   34.0845750000000         3.530224877850784E-011
   34.1976250000000         3.578372590826993E-011
   34.3106750000000         3.626993807042012E-011
   34.4237250000000         3.676103535899174E-011
   34.5367750000000         3.725716722602604E-011
   34.6498250000000         3.775847805485592E-011
   34.7628750000000         3.826510308083888E-011
   34.8759250000000         3.877716478598453E-011
   34.9889750000000         3.929476987889941E-011
   35.1020250000000         3.981800691752480E-011
   35.2150750000000         4.034694480750964E-011
   35.3281250000000         4.088163203101943E-011
   35.4411750000000         4.142209681849771E-011
   35.5542250000000         4.196834814627361E-011
   35.6672750000000         4.252037753738211E-011
   35.7803250000000         4.307816159354618E-011
   35.8933750000000         4.364166519600219E-011
   36.0064250000000         4.421084508805949E-011
   36.1194750000000         4.478565383569322E-011
   36.2325250000000         4.536604381606471E-011
   36.3455750000000         4.595197111949881E-011
   36.4586250000000         4.654339912433619E-011
   36.5716750000000         4.714030155744860E-011
   36.6847250000000         4.774266487649271E-011
   36.7977750000000         4.835048987597656E-011
   36.9108250000000         4.896379243736501E-011
   37.0238750000000         4.958260334850745E-011
   37.1369250000000         5.020696737536405E-011
   37.2499750000000         5.083694147475559E-011
   37.3630250000000         5.147259248272042E-011
   37.4760750000000         5.211399426776386E-011
   37.5891250000000         5.276122470622501E-011
   37.7021750000000         5.341436255079715E-011
   37.8152250000000         5.407348446217997E-011
   37.9282750000000         5.473866234547781E-011
   38.0413250000000         5.540996116827599E-011
   38.1543750000000         5.608743733103693E-011
   38.2674250000000         5.677113772170123E-011
   38.3804750000000         5.746109943824083E-011
   38.4935250000000         5.815735016131055E-011
   38.6065750000000         5.885990913917307E-011
   38.7196250000000         5.956878877516666E-011
   38.8326750000000         6.028399656826064E-011
   38.9457250000000         6.100553745875678E-011
   39.0587750000000         6.173341632552347E-011
   39.1718250000000         6.246764055971137E-011
   39.2848750000000         6.320822264216182E-011
   39.3979250000000         6.395518246063875E-011
   39.5109750000000         6.470854940074353E-011
   39.6240250000000         6.546836404397352E-011
   39.7370750000000         6.623467933919295E-011
   39.8501250000000         6.700756128369647E-011
   39.9631750000000         6.778708895267181E-011
   40.0762250000000         6.857335391293072E-011
   40.1892750000000         6.936645897444075E-011
   40.3023250000000         7.016651632311977E-011
   40.4153750000000         7.097364512006769E-011
   40.5284250000000         7.178796859152751E-011
   40.6414750000000         7.260961081143553E-011
   40.7545250000000         7.343869328783699E-011
   40.8675750000000         7.427533155347421E-011
   40.9806250000000         7.511963201635122E-011
   41.0936750000000         7.597168915895193E-011
   41.2067250000000         7.683158339637953E-011
   41.3197750000000         7.769937974816814E-011
   41.4328250000000         7.857512741310352E-011
   41.5458750000000         7.945886038872128E-011
   41.6589250000000         8.035059912274810E-011
   41.7719750000000         8.125035320038578E-011
   41.8850250000000         8.215812491983408E-011
   41.9980750000000         8.307391359626245E-011
   42.1111250000000         8.399772039209665E-011
   42.2241750000000         8.492955326113404E-011
   42.3372250000000         8.586943188067110E-011
   42.4502750000000         8.681739210357118E-011
   42.5633250000000         8.777348963508635E-011
   42.6763750000000         8.873780274228040E-011
   42.7894250000000         8.971043358819127E-011
   42.9024750000000         9.069150815581532E-011
   43.0155250000000         9.168117456847148E-011
   43.1285750000000         9.267959981401491E-011
   43.2416250000000         9.368696486414568E-011
   43.3546750000000         9.470345847041303E-011
   43.4677250000000         9.572926968363922E-011
   43.5807750000000         9.676457952788482E-011
   43.6938250000000         9.780955209310919E-011
   43.8068750000000         9.886432545383677E-011
   43.9199250000000         9.992900289576752E-011
   44.0329750000000         1.010036448144502E-010
   44.1460250000000         1.020882617740347E-010
   44.2590750000000         1.031828091294864E-010
   44.3721250000000         1.042871835490961E-010
   44.4851750000000         1.054012218429140E-010
   44.5982250000000         1.065247022897243E-010
   44.7112750000000         1.076573486657350E-010
   44.8243250000000         1.087988370062026E-010
   44.9373750000000         1.099488050612875E-010
   45.0504250000000         1.111068643733127E-010
   45.1634750000000         1.122726145117107E-010
   45.2765250000000         1.134456592365401E-010
   45.3895750000000         1.146256239497327E-010
   45.5026250000000         1.158121738730082E-010
   45.6156750000000         1.170050322244825E-010
   45.7287250000000         1.182039976114779E-010
   45.8417750000000         1.194089598902232E-010
   45.9548250000000         1.206199136333526E-010
   46.0678750000000         1.218369685767047E-010
   46.1809250000000         1.230603562478298E-010
   46.2939750000000         1.242904323341119E-010
   46.4070250000000         1.255276743548281E-010
   46.5200750000000         1.267726744147639E-010
   46.6331250000000         1.280261269780711E-010
   46.7461750000000         1.292888119370804E-010
   46.8592250000000         1.305615732671337E-010
   46.9722750000000         1.318452939229472E-010
   47.0853250000000         1.331408676321823E-010
   47.1983750000000         1.344491687375630E-010
   47.3114250000000         1.357710209113128E-010
   47.4244750000000         1.371071660337729E-010
   47.5375250000000         1.384582343437480E-010
   47.6505750000000         1.398247171017939E-010
   47.7636250000000         1.412069428674187E-010
   47.8766750000000         1.426050584390706E-010
   47.9897250000000         1.440190153782151E-010
   48.1027750000000         1.454485628087675E-010
   48.2158250000000         1.468932470670414E-010
   48.3288750000000         1.483524184623023E-010
   48.4419250000000         1.498252451859306E-010
   48.5549750000000         1.513107341225616E-010
   48.6680250000000         1.528077581277523E-010
   48.7810750000000         1.543150890283493E-010
   48.8941250000000         1.558314353955800E-010
   49.0071750000000         1.573554838537958E-010
   49.1202250000000         1.588859427076858E-010
   49.2332750000000         1.604215863875307E-010
   49.3463250000000         1.619612992221265E-010
   49.4593750000000         1.635041169847825E-010
   49.5724250000000         1.650492648434546E-010
   49.6854750000000         1.665961903247585E-010
   49.7985250000000         1.681445900879899E-010
   49.9115750000000         1.696944296107959E-010
   50.0246250000000         1.712459550294989E-010
   50.1376750000000         1.727996968230872E-010
   50.2507250000000         1.743564650946004E-010
   50.3637750000000         1.759173367724798E-010
   50.4768250000000         1.774836351866557E-010
   50.5898750000000         1.790569027207453E-010
   50.7029250000000         1.806388675378523E-010
   50.8159750000000         1.822314055281629E-010
   50.9290250000000         1.838364986823282E-010
   51.0420750000000         1.854561910547268E-010
   51.1551250000000         1.870925437004496E-010
   51.2681750000000         1.887475895861461E-010
   51.3812250000000         1.904232893926440E-010
   51.4942750000000         1.921214890992045E-010
   51.6073250000000         1.938438797711997E-010
   51.7203750000000         1.955919599119388E-010
   51.8334250000000         1.973670004419382E-010
   51.9464750000000         1.991700121687650E-010
   52.0595250000000         2.010017155337534E-010
   52.1725750000000         2.028625122956519E-010
   52.2856250000000         2.047524589035398E-010
   52.3986750000000         2.066712412127859E-010
   52.5117250000000         2.086181506146208E-010
   52.6247750000000         2.105920617840104E-010
   52.7378250000000         2.125914127013794E-010
   52.8508750000000         2.146141878985107E-010
   52.9639250000000         2.166579063901190E-010
   53.0769750000000         2.187196162357908E-010
   53.1900250000000         2.207958980072004E-010
   53.3030750000000         2.228828799091870E-010
   53.4161250000000         2.249762673527120E-010
   53.5291750000000         2.270713900968437E-010
   53.6422250000000         2.291632697697412E-010
   53.7552750000000         2.312467103305282E-010
   53.8683250000000         2.333164135395054E-010
   53.9813750000000         2.353671204101429E-010
   54.0944250000000         2.373937789511487E-010
   54.2074750000000         2.393917366838492E-010
   54.3205250000000         2.413569552214532E-010
   54.4335750000000         2.432862423468560E-010
   54.5466250000000         2.451774951481636E-010
   54.6596750000000         2.470299460820253E-010
   54.7727250000000         2.488444019901503E-010
   54.8857750000000         2.506234645632970E-010
   54.9988250000000         2.523717194344577E-010
   55.1118750000000         2.540958803703414E-010
   55.2249250000000         2.558048745717778E-010
   55.3379750000000         2.575098555245779E-010
   55.4510250000000         2.592241308274496E-010
   55.5640750000000         2.609629941380859E-010
   55.6771250000000         2.627434531947760E-010
   55.7901750000000         2.645838490127552E-010
   55.9032250000000         2.665033655785929E-010
   56.0162750000000         2.685214340895748E-010
   56.1293250000000         2.706570411122212E-010
   56.2423750000000         2.729279555124048E-010
   56.3554250000000         2.753498948418516E-010
   56.4684750000000         2.779356573304656E-010
   56.5815250000000         2.806942508016584E-010
   56.6945750000000         2.836300543208479E-010
   56.8076250000000         2.867420517677234E-010
   56.9206750000000         2.900231786341784E-010
   57.0337250000000         2.934598240691685E-010
   57.1467750000000         2.970315288868751E-010
   57.2598250000000         3.007109172110172E-010
   57.3728750000000         3.044638942988991E-010
   57.4859250000000         3.082501358818676E-010
   57.5989750000000         3.120238851407047E-010
   57.7120250000000         3.157350624553842E-010
   57.8250750000000         3.193306806307112E-010
   57.9381250000000         3.227565445318994E-010
   58.0511750000000         3.259591995764597E-010
   58.1642250000000         3.288880791473070E-010
   58.2772750000000         3.314977866507109E-010
   58.3903250000000         3.337504351815706E-010
   58.5033750000000         3.356179562534909E-010
   58.6164250000000         3.370842806305055E-010
   58.7294750000000         3.381472884650015E-010
   58.8425250000000         3.388204241872193E-010
   58.9555750000000         3.391338737998136E-010
   59.0686250000000         3.391352092252897E-010
   59.1816750000000         3.388894157087878E-010
   59.2947250000000         3.384782348307972E-010
   59.4077750000000         3.379987764009327E-010
   59.5208250000000         3.375613775361693E-010
   59.6338750000000         3.372867157527243E-010
   59.7469250000000         3.373022141058333E-010
   59.8599750000000         3.377378091188849E-010
   59.9730250000000         3.387211855123198E-010
   60.0860750000000         3.403726140012819E-010
   60.1991250000000         3.427995584092318E-010
   60.3121750000000         3.460912442785521E-010
   60.4252250000000         3.503134018846209E-010
   60.5382750000000         3.555034108724714E-010
   60.6513250000000         3.616660794198805E-010
   60.7643750000000         3.687702884734176E-010
   60.8774250000000         3.767467188384999E-010
   60.9904750000000         3.854868564500556E-010
   61.1035250000000         3.948434386639388E-010
   61.2165750000000         4.046324619278126E-010
   61.3296250000000         4.146368200752161E-010
   61.4426750000000         4.246115838115060E-010
   61.5557250000000         4.342908670880946E-010
   61.6687750000000         4.433961579291654E-010
   61.7818250000000         4.516459210585031E-010
   61.8948750000000         4.587662115981744E-010
   62.0079250000000         4.645019745605162E-010
   62.1209750000000         4.686286479149623E-010
   62.2340250000000         4.709636401275906E-010
   62.3470750000000         4.713772191628108E-010
   62.4601250000000         4.698023312246441E-010
   62.5731750000000         4.662428667446331E-010
   62.6862250000000         4.607799089739650E-010
   62.7992750000000         4.535755389220500E-010
   62.9123250000000         4.448738285900639E-010
   63.0253750000000         4.349987325632280E-010
   63.1384250000000         4.243486842573601E-010
   63.2514750000000         4.133878155086529E-010
   63.3645250000000         4.026338432878871E-010
   63.4775750000000         3.926428016462181E-010
   63.5906250000000         3.839909356896263E-010
   63.7036750000000         3.772542126618008E-010
   63.8167250000000         3.729860374007616E-010
   63.9297750000000         3.716938798872872E-010
   64.0428250000000         3.738156259302977E-010
   64.1558750000000         3.796965421076303E-010
   64.2689250000000         3.895677987287540E-010
   64.3819750000000         4.035275148684718E-010
   64.4950250000000         4.215252744941400E-010
   64.6080750000000         4.433510093929174E-010
   64.7211250000000         4.686290531051109E-010
   64.8341750000000         4.968180393829438E-010
   64.9472250000000         5.272171519643811E-010
   65.0602750000000         5.589790324621836E-010
   65.1733250000000         5.911294249610112E-010
   65.2863750000000         6.225933862311932E-010
   65.3994250000000         6.522276267450845E-010
   65.5124750000000         6.788582789122495E-010