 -0.847875000000000         1.542636579443782E-020
 -0.734825000000000         1.389831652545646E-019
 -0.621775000000000         8.990059873788957E-019
 -0.508725000000000         4.555410433496289E-018
 -0.395675000000000         1.888064108105338E-017
 -0.282625000000000         6.599744283760264E-017
 -0.169575000000000         1.980185555708177E-016
 -5.652500000000005E-002    5.163696211604132E-016
  5.652499999999994E-002    1.183259605511158E-015
  0.169575000000000         2.406736098105122E-015
  0.282625000000000         4.386672059872770E-015
  0.395675000000000         7.219287471424775E-015
  0.508725000000000         1.077396796670235E-014
  0.621775000000000         1.456126164275759E-014
  0.734825000000000         1.760385349791387E-014
  0.847875000000000         1.830773643407861E-014
  0.960925000000000         1.433946230329889E-014
   1.07397500000000         2.525757354595315E-015
   1.18702500000000        -2.126214311825704E-014
   1.30007500000000        -6.221665888284672E-014
   1.41312500000000        -1.266690226410406E-013
   1.52617500000000        -2.221431754965165E-013
   1.63922500000000        -3.574029081795597E-013
   1.75227500000000        -5.424765297387085E-013
   1.86532500000000        -7.886080576750271E-013
   1.97837500000000        -1.108207487069722E-012
   2.09142500000000        -1.514765625551296E-012
   2.20447500000000        -2.022697970563316E-012
   2.31752500000000        -2.647104945203434E-012
   2.43057500000000        -3.403591590734667E-012
   2.54362500000000        -4.308048974857280E-012
   2.65667500000000        -5.376277158351460E-012
   2.76972500000000        -6.623744765904223E-012
   2.88277500000000        -8.065247065964953E-012
   2.99582500000000        -9.714504401298054E-012
   3.10887500000000        -1.158387029832310E-011
   3.22192500000000        -1.368412038507098E-011
   3.33497500000000        -1.602414240350846E-011
   3.44802500000000        -1.861057229200248E-011
   3.56107500000000        -2.144774971826798E-011
   3.67412500000000        -2.453757476267505E-011
   3.78717500000000        -2.787946481810086E-011
   3.90022500000000        -3.147029117513074E-011
   4.01327500000000        -3.530450219397768E-011
   4.12632500000000        -3.937428776802807E-011
   4.23937500000000        -4.366972946837640E-011
   4.35242500000000        -4.817913143106591E-011
   4.46547500000000        -5.288918748457784E-011
   4.57852500000000        -5.778538538005063E-011
   4.69157500000000        -6.285235389781424E-011
   4.80462500000000        -6.807417517282750E-011
   4.91767500000000        -7.343474211444629E-011
   5.03072500000000        -7.891800269441963E-011
   5.14377500000000        -8.450822370307798E-011
   5.25682500000000        -9.019028725119383E-011
   5.36987500000000        -9.594976755202121E-011
   5.48292500000000        -1.017731042287237E-010
   5.59597500000000        -1.076477055530499E-010
   5.70902500000000        -1.135618742063757E-010
   5.82207500000000        -1.195047395464973E-010
   5.93512500000000        -1.254662638870947E-010
   6.04817500000000        -1.314372257337340E-010
   6.16122500000000        -1.374089452617211E-010
   6.27427500000000        -1.433731307631972E-010
   6.38732500000000        -1.493219687359681E-010
   6.50037500000000        -1.552480851939049E-010
   6.61342500000000        -1.611443495511690E-010
   6.72647500000000        -1.670039605007947E-010
   6.83952500000000        -1.728205623280778E-010
   6.95257500000000        -1.785883494493313E-010
   7.06562500000000        -1.843021323378719E-010
   7.17867500000000        -1.899576573956922E-010
   7.29172500000000        -1.955519224634690E-010
   7.40477500000000        -2.010831003748161E-010
   7.51782500000000        -2.065509767209364E-010
   7.63087500000000        -2.119572736168605E-010
   7.74392500000000        -2.173056989479888E-010
   7.85697500000000        -2.226020040313344E-010
   7.97002500000000        -2.278540807781239E-010
   8.08307500000000        -2.330719151816171E-010
   8.19612500000000        -2.382674194437714E-010
   8.30917500000000        -2.434542986663957E-010
   8.42222500000000        -2.486474964501794E-010
   8.53527500000000        -2.538628101595502E-010
   8.64832500000000        -2.591164909090455E-010
   8.76137500000000        -2.644245557653107E-010
   8.87442500000000        -2.698021468425847E-010
   8.98747500000000        -2.752629888290314E-010
   9.10052500000000        -2.808187073563597E-010
   9.21357500000000        -2.864782581745035E-010
   9.32662500000000        -2.922475060468414E-010
   9.43967500000000        -2.981288435327889E-010
   9.55272500000000        -3.041209728880520E-010
   9.66577500000000        -3.102187688543806E-010
   9.77882500000000        -3.164134064435988E-010
   9.89187500000000        -3.226926159166167E-010
   10.0049250000000        -3.290409971294537E-010
   10.1179750000000        -3.354407137326804E-010
   10.2310250000000        -3.418721851089686E-010
   10.3440750000000        -3.483147782934482E-010
   10.4571250000000        -3.547477146352777E-010
   10.5701750000000        -3.611510100737246E-010
   10.6832250000000        -3.675063128110073E-010
   10.7962750000000        -3.737977126744770E-010
   10.9093250000000        -3.800125576028381E-010
   11.0223750000000        -3.861419558119128E-010
   11.1354250000000        -3.921812330957549E-010
   11.2484750000000        -3.981302978919508E-010
   11.3615250000000        -4.039935445240905E-010
   11.4745750000000        -4.097797429555983E-010
   11.5876250000000        -4.155017850071535E-010
   11.7006750000000        -4.211759187421330E-010
   11.8137250000000        -4.268211235380962E-010
   11.9267750000000        -4.324583743144179E-010
   12.0398250000000        -4.381094712618749E-010
   12.1528750000000        -4.437961084300129E-010
   12.2659250000000        -4.495389336809413E-010
   12.3789750000000        -4.553565399072229E-010
   12.4920250000000        -4.612646019990611E-010
   12.6050750000000        -4.672750322958332E-010
   12.7181250000000        -4.733955004251179E-010
   12.8311750000000        -4.796290801568028E-010
   12.9442250000000        -4.859740009755855E-010
   13.0572750000000        -4.924237441276987E-010
   13.1703250000000        -4.989672836599580E-010
   13.2833750000000        -5.055895678902384E-010
   13.3964250000000        -5.122722464956429E-010
   13.5094750000000        -5.189943975271437E-010
   13.6225250000000        -5.257334324055240E-010
   13.7355750000000        -5.324661117546349E-010
   13.8486250000000        -5.391695756526199E-010
   13.9616750000000        -5.458222977930593E-010
   14.0747250000000        -5.524049094189926E-010
   14.1877750000000        -5.589010572212535E-010
   14.3008250000000        -5.652979627082040E-010
   14.4138750000000        -5.715868904695164E-010
   14.5269250000000        -5.777634554713616E-010
   14.6399750000000        -5.838274768904917E-010
   14.7530250000000        -5.897829592217132E-010
   14.8660750000000        -5.956377831248244E-010
   14.9791250000000        -6.014030686634296E-010
   15.0921750000000        -6.070925502202678E-010
   15.2052250000000        -6.127218757341018E-010
   15.3182750000000        -6.183078601797963E-010
   15.4313250000000        -6.238675992129657E-010
   15.5443750000000        -6.294177330054542E-010
   15.6574250000000        -6.349738665531585E-010
   15.7704750000000        -6.405499361554793E-010
   15.8835250000000        -6.461578016449495E-010
   15.9965750000000        -6.518070009077906E-010
   16.1096250000000        -6.575047326412893E-010
   16.2226750000000        -6.632559420758141E-010
   16.3357250000000        -6.690635876246434E-010
   16.4487750000000        -6.749291842724516E-010
   16.5618250000000        -6.808532929144596E-010
   16.6748750000000        -6.868361400276535E-010
   16.7879250000000        -6.928783800915516E-010
   16.9009750000000        -6.989817395508929E-010
   17.0140250000000        -7.051495475334341E-010
   17.1270750000000        -7.113874873119648E-010
   17.2401250000000        -7.177039941049226E-010
   17.3531750000000        -7.241104576708996E-010
   17.4662250000000        -7.306212915088741E-010
   17.5792750000000        -7.372537980467291E-010
   17.6923250000000        -7.440279274835520E-010
   17.8053750000000        -7.509657797894227E-010
   17.9184250000000        -7.580907269085085E-010
   18.0314750000000        -7.654267126692590E-010
   18.1445250000000        -7.729972122834932E-010
   18.2575750000000        -7.808241558787611E-010
   18.3706250000000        -7.889268460649933E-010
   18.4836750000000        -7.973209525224742E-010
   18.5967250000000        -8.060175022983359E-010
   18.7097750000000        -8.150219263537335E-010
   18.8228250000000        -8.243334657242051E-010
   18.9358750000000        -8.339446734631198E-010
   19.0489250000000        -8.438412182584121E-010
   19.1619750000000        -8.540018403820333E-010
   19.2750250000000        -8.643986395407194E-010
   19.3880750000000        -8.749977222836991E-010
   19.5011250000000        -8.857600000438820E-010
   19.6141750000000        -8.966422130139332E-010
   19.7272250000000        -9.075982315275966E-010
   19.8402750000000        -9.185803807313869E-010
   19.9533250000000        -9.295410188163625E-010
   20.0663750000000        -9.404341450051570E-010
   20.1794250000000        -9.512168329404206E-010
   20.2924750000000        -9.618507424218747E-010
   20.4055250000000        -9.723034907722389E-010
   20.5185750000000        -9.825496843320680E-010
   20.6316250000000        -9.925719246155391E-010
   20.7446750000000        -1.002361371442585E-009
   20.8577250000000        -1.011918176163013E-009
   20.9707750000000        -1.021251538587070E-009
   21.0838250000000        -1.030379382050592E-009
   21.1968750000000        -1.039327913010253E-009
   21.3099250000000        -1.048130772815560E-009
   21.4229750000000        -1.056827948638898E-009
   21.5360250000000        -1.065464559218647E-009
   21.6490750000000        -1.074089552525082E-009
   21.7621250000000        -1.082754183552557E-009
   21.8751750000000        -1.091510516412654E-009
   21.9882250000000        -1.100410029553764E-009
   22.1012750000000        -1.109502211424136E-009
   22.2143250000000        -1.118833361652453E-009
   22.3273750000000        -1.128445467361670E-009
   22.4404250000000        -1.138375365039775E-009
   22.5534750000000        -1.148654120764346E-009
   22.6665250000000        -1.159306714723752E-009
   22.7795750000000        -1.170351840830786E-009
   22.8926250000000        -1.181801973515705E-009
   23.0056750000000        -1.193663805772446E-009
   23.1187250000000        -1.205938716801155E-009
   23.2317750000000        -1.218623360618473E-009
   23.3448250000000        -1.231710467050922E-009
   23.4578750000000        -1.245189620239308E-009
   23.5709250000000        -1.259048143002421E-009
   23.6839750000000        -1.273271868498778E-009
   23.7970250000000        -1.287845889378862E-009
   23.9100750000000        -1.302755274514917E-009
   24.0231250000000        -1.317985326252277E-009
   24.1361750000000        -1.333522046184538E-009
   24.2492250000000        -1.349352358342237E-009
   24.3622750000000        -1.365463957880318E-009
   24.4753250000000        -1.381845160688377E-009
   24.5883750000000        -1.398484626558581E-009
   24.7014250000000        -1.415370940749220E-009
   24.8144750000000        -1.432492061823742E-009
   24.9275250000000        -1.449834785843829E-009
   25.0405750000000        -1.467384186615362E-009
   25.1536250000000        -1.485123120999847E-009
   25.2666750000000        -1.503031845045875E-009
   25.3797250000000        -1.521087748859440E-009
   25.4927750000000        -1.539265216547338E-009
   25.6058250000000        -1.557535697266567E-009
   25.7188750000000        -1.575868014625592E-009
   25.8319250000000        -1.594228839538349E-009
   25.9449750000000        -1.612583386448972E-009
   26.0580250000000        -1.630896255990021E-009
   26.1710750000000        -1.649132402078776E-009
   26.2841250000000        -1.667258339332482E-009
   26.3971750000000        -1.685243264384491E-009
   26.5102250000000        -1.703060175434337E-009
   26.6232750000000        -1.720687126399734E-009
   26.7363250000000        -1.738108268241640E-009
   26.8493750000000        -1.755314696451370E-009
   26.9624250000000        -1.772305077224527E-009
   27.0754750000000        -1.789086164504257E-009
   27.1885250000000        -1.805672891258645E-009
   27.3015750000000        -1.822088319304394E-009
   27.4146250000000        -1.838363236124901E-009
   27.5276750000000        -1.854535315032013E-009
   27.6407250000000        -1.870648202821336E-009
   27.7537750000000        -1.886750329522977E-009
   27.8668250000000        -1.902893440720257E-009
   27.9798750000000        -1.919130957017291E-009
   28.0929250000000        -1.935516439526048E-009
   28.2059750000000        -1.952101859170781E-009
   28.3190250000000        -1.968935858100375E-009
   28.4320750000000        -1.986062417633248E-009
   28.5451250000000        -2.003519381049426E-009
   28.6581750000000        -2.021337225399355E-009
   28.7712250000000        -2.039538349482993E-009
   28.8842750000000        -2.058136463045816E-009
   28.9973250000000        -2.077136216751685E-009
   29.1103750000000        -2.096533269219268E-009
   29.2234250000000        -2.116314774403782E-009
   29.3364750000000        -2.136460111676544E-009
   29.4495250000000        -2.156941788039395E-009
   29.5625750000000        -2.177726661248794E-009
   29.6756250000000        -2.198777340751273E-009
   29.7886750000000        -2.220053625556604E-009
   29.9017250000000        -2.241514191300600E-009
   30.0147750000000        -2.263118165619916E-009
   30.1278250000000        -2.284826403554185E-009
   30.2408750000000        -2.306603005806072E-009
   30.3539250000000        -2.328416634404163E-009
   30.4669750000000        -2.350241237992639E-009
   30.5800250000000        -2.372056728415055E-009
   30.6930750000000        -2.393849571753129E-009
   30.8061250000000        -2.415612786041850E-009
   30.9191750000000        -2.437345670538288E-009
   31.0322250000000        -2.459053473968860E-009
   31.1452750000000        -2.480746610442332E-009
   31.2583250000000        -2.502439712643176E-009
   31.3713750000000        -2.524150542722738E-009
   31.4844250000000        -2.545898790909209E-009
   31.5974750000000        -2.567704768951189E-009
   31.7105250000000        -2.589588129024363E-009
   31.8235750000000        -2.611566654481192E-009
   31.9366250000000        -2.633655091937923E-009
   32.0496750000000        -2.655864236785191E-009
   32.1627250000000        -2.678200064530886E-009
   32.2757750000000        -2.700663243060440E-009
   32.3888250000000        -2.723248916371542E-009
   32.5018750000000        -2.745946483007327E-009
   32.6149250000000        -2.768739837795968E-009
   32.7279750000000        -2.791607929019458E-009
   32.8410250000000        -2.814525501420020E-009
   32.9540750000000        -2.837463773666721E-009
   33.0671250000000        -2.860391634649746E-009
   33.1801750000000        -2.883277110318636E-009
   33.2932250000000        -2.906088321484101E-009
   33.4062750000000        -2.928794855787401E-009
   33.5193250000000        -2.951369268454047E-009
   33.6323750000000        -2.973788257276909E-009
   33.7454250000000        -2.996033724617645E-009
   33.8584750000000        -3.018093741447229E-009
   33.9715250000000        -3.039963434204878E-009
   34.0845750000000        -3.061645479328909E-009
   34.1976250000000        -3.083150400719366E-009
   34.3106750000000        -3.104496644610784E-009
   34.4237250000000        -3.125710335635755E-009
   34.5367750000000        -3.146824721044193E-009
   34.6498250000000        -3.167879439475769E-009
   34.7628750000000        -3.188919627429570E-009
   34.8759250000000        -3.209994750032765E-009
   34.9889750000000        -3.231157229010212E-009
   35.1020250000000        -3.252461103940577E-009
   35.2150750000000        -3.273960637106171E-009
   35.3281250000000        -3.295708845899574E-009
   35.4411750000000        -3.317756170421334E-009
   35.5542250000000        -3.340149197675181E-009
   35.6672750000000        -3.362929562405684E-009
   35.7803250000000        -3.386133148398788E-009
   35.8933750000000        -3.409789363510306E-009
   36.0064250000000        -3.433920836826538E-009
   36.1194750000000        -3.458543271190279E-009
   36.2325250000000        -3.483665621966780E-009
   36.3455750000000        -3.509290574405359E-009
   36.4586250000000        -3.535415073199279E-009
   36.5716750000000        -3.562031347087656E-009
   36.6847250000000        -3.589127889764392E-009
   36.7977750000000        -3.616690628890054E-009
   36.9108250000000        -3.644704064904243E-009
   37.0238750000000        -3.673152472612323E-009
   37.1369250000000        -3.702021153017035E-009
   37.2499750000000        -3.731297294009972E-009
   37.3630250000000        -3.760970766716152E-009
   37.4760750000000        -3.791034781916768E-009
   37.5891250000000        -3.821486195574276E-009
   37.7021750000000        -3.852325455880130E-009
   37.8152250000000        -3.883556364368778E-009
   37.9282750000000        -3.915185545078472E-009
   38.0413250000000        -3.947221488365684E-009
   38.1543750000000        -3.979673500816582E-009
   38.2674250000000        -4.012550482821518E-009
   38.3804750000000        -4.045859440938404E-009
   38.4935250000000        -4.079604006949697E-009
   38.6065750000000        -4.113783070941772E-009
   38.7196250000000        -4.148389366577564E-009
   38.8326750000000        -4.183408375536421E-009
   38.9457250000000        -4.218817571249972E-009
   39.0587750000000        -4.254585702621093E-009
   39.1718250000000        -4.290672765620911E-009
   39.2848750000000        -4.327030376804935E-009
   39.3979250000000        -4.363602316307607E-009
   39.5109750000000        -4.400325803587344E-009
   39.6240250000000        -4.437133210753416E-009
   39.7370750000000        -4.473953918645536E-009
   39.8501250000000        -4.510716624492062E-009
   39.9631750000000        -4.547351898422951E-009
   40.0762250000000        -4.583794715143769E-009
   40.1892750000000        -4.619987077581576E-009
   40.3023250000000        -4.655880687823202E-009
   40.4153750000000        -4.691439199774846E-009
   40.5284250000000        -4.726640019810728E-009
   40.6414750000000        -4.761475916563589E-009
   40.7545250000000        -4.795955934095786E-009
   40.8675750000000        -4.830105884863440E-009
   40.9806250000000        -4.863968008543343E-009
   41.0936750000000        -4.897600026423262E-009
   41.2067250000000        -4.931073724951675E-009
   41.3197750000000        -4.964472704416447E-009
   41.4328250000000        -4.997889714613346E-009
   41.5458750000000        -5.031423571537231E-009
   41.6589250000000        -5.065175804280740E-009
   41.7719750000000        -5.099247047081009E-009
   41.8850250000000        -5.133733456436671E-009
   41.9980750000000        -5.168723294795882E-009
   42.1111250000000        -5.204293743726618E-009
   42.2241750000000        -5.240508114267708E-009
   42.3372250000000        -5.277413664658860E-009
   42.4502750000000        -5.315040073553009E-009
   42.5633250000000        -5.353398625945300E-009
   42.6763750000000        -5.392482231963408E-009
   42.7894250000000        -5.432266185354508E-009
   42.9024750000000        -5.472709664131078E-009
   43.0155250000000        -5.513758019252979E-009
   43.1285750000000        -5.555345600000845E-009
   43.2416250000000        -5.597399143960205E-009
   43.3546750000000        -5.639841517446450E-009
   43.4677250000000        -5.682595539281989E-009
   43.5807750000000        -5.725587862365668E-009
   43.6938250000000        -5.768752665805393E-009
   43.8068750000000        -5.812034909098172E-009
   43.9199250000000        -5.855393074011328E-009
   44.0329750000000        -5.898801316545718E-009
   44.1460250000000        -5.942250754886924E-009
   44.2590750000000        -5.985749696075448E-009
   44.3721250000000        -6.029323162238579E-009
   44.4851750000000        -6.073011509211198E-009
   44.5982250000000        -6.116867904870102E-009
   44.7112750000000        -6.160955272854272E-009
   44.8243250000000        -6.205342448524900E-009
   44.9373750000000        -6.250099798718663E-009
   45.0504250000000        -6.295294685801269E-009
   45.1634750000000        -6.340986624371354E-009
   45.2765250000000        -6.387222740409309E-009
   45.3895750000000        -6.434033563021738E-009
   45.5026250000000        -6.481429364885460E-009
   45.6156750000000        -6.529397471800628E-009
   45.7287250000000        -6.577900346092471E-009
   45.8417750000000        -6.626874834677503E-009
   45.9548250000000        -6.676232777414170E-009
   46.0678750000000        -6.725862717872456E-009
   46.1809250000000        -6.775632930073494E-009
   46.2939750000000        -6.825395692321566E-009
   46.4070250000000        -6.874992525008154E-009
   46.5200750000000        -6.924260212953883E-009
   46.6331250000000        -6.973037653305396E-009
   46.7461750000000        -7.021172980042997E-009
   46.8592250000000        -7.068530780029324E-009
   46.9722750000000        -7.114998954441821E-009
   47.0853250000000        -7.160495092543539E-009
   47.1983750000000        -7.204971989561892E-009
   47.3114250000000        -7.248421728218698E-009
   47.4244750000000        -7.290878635879555E-009
   47.5375250000000        -7.332420284702852E-009
   47.6505750000000        -7.373166880823394E-009
   47.7636250000000        -7.413278722888233E-009
   47.8766750000000        -7.452951643258504E-009
   47.9897250000000        -7.492410959589786E-009
   48.1027750000000        -7.531903659249650E-009
   48.2158250000000        -7.571689271997470E-009
   48.3288750000000        -7.612029715258286E-009
   48.4419250000000        -7.653178645874457E-009
   48.5549750000000        -7.695370610051157E-009
   48.6680250000000        -7.738810379940079E-009
   48.7810750000000        -7.783663243062861E-009
   48.8941250000000        -7.830046658613498E-009
   49.0071750000000        -7.878023543581396E-009
   49.1202250000000        -7.927597716393170E-009
   49.2332750000000        -7.978711872408759E-009
   49.3463250000000        -8.031248234187117E-009
   49.4593750000000        -8.085032027346610E-009
   49.5724250000000        -8.139837756357074E-009
   49.6854750000000        -8.195398191232970E-009
   49.7985250000000        -8.251415775124531E-009
   49.9115750000000        -8.307576095004848E-009
   50.0246250000000        -8.363562808425835E-009
   50.1376750000000        -8.419073500026674E-009
   50.2507250000000        -8.473835801437293E-009
   50.3637750000000        -8.527622905468785E-009
   50.4768250000000        -8.580267767339036E-009
   50.5898750000000        -8.631675344463438E-009
   50.7029250000000        -8.681831969250640E-009
   50.8159750000000        -8.730811383143872E-009
   50.9290250000000        -8.778776773303153E-009
   51.0420750000000        -8.825978641744456E-009
   51.1551250000000        -8.872748302379061E-009
   51.2681750000000        -8.919486823783535E-009
   51.3812250000000        -8.966649977575459E-009
   51.4942750000000        -9.014729208817624E-009
   51.6073250000000        -9.064229794920596E-009
   51.7203750000000        -9.115646720744692E-009
   51.8334250000000        -9.169439322788605E-009
   51.9464750000000        -9.226006032685372E-009
   52.0595250000000        -9.285660124172101E-009
   52.1725750000000        -9.348607840907635E-009
   52.2856250000000        -9.414930441242537E-009
   52.3986750000000        -9.484570980023404E-009
   52.5117250000000        -9.557326659448252E-009
   52.6247750000000        -9.632847960936950E-009
   52.7378250000000        -9.710644875647992E-009
   52.8508750000000        -9.790100319271830E-009
   52.9639250000000        -9.870490639638445E-009
   53.0769750000000        -9.951013049552445E-009
   53.1900250000000        -1.003081872824723E-008
   53.3030750000000        -1.010905043306421E-008
   53.4161250000000        -1.018488354171502E-008
   53.5291750000000        -1.025756826228729E-008
   53.6422250000000        -1.032647123271282E-008
   53.7552750000000        -1.039111444081094E-008
   53.8683250000000        -1.045120931147125E-008
   53.9813750000000        -1.050668415126852E-008
   54.0944250000000        -1.055770258080629E-008
   54.2074750000000        -1.060467162972625E-008
   54.3205250000000        -1.064823875595703E-008
   54.4335750000000        -1.068927638458160E-008
   54.5466250000000        -1.072885399223045E-008
   54.6596750000000        -1.076819839877836E-008
   54.7727250000000        -1.080864311847978E-008
   54.8857750000000        -1.085156847066733E-008
   54.9988250000000        -1.089833454668040E-008
   55.1118750000000        -1.095021009853883E-008
   55.2249250000000        -1.100830032795329E-008
   55.3379750000000        -1.107347721856877E-008
   55.4510250000000        -1.114631598899931E-008
   55.5640750000000        -1.122704144726907E-008
   55.6771250000000        -1.131548771556571E-008
   55.7901750000000        -1.141107435906912E-008
   55.9032250000000        -1.151280174918154E-008
   56.0162750000000        -1.161926729892643E-008
   56.1293250000000        -1.172870357237730E-008
   56.2423750000000        -1.183903843671165E-008
   56.3554250000000        -1.194797598929189E-008
   56.4684750000000        -1.205309610390322E-008
   56.5815250000000        -1.215196939994829E-008
   56.6945750000000        -1.224228312571202E-008
   56.8076250000000        -1.232197275371150E-008
   56.9206750000000        -1.238935329778857E-008
   57.0337250000000        -1.244324385689572E-008
   57.1467750000000        -1.248307843169703E-008
   57.2598250000000        -1.250899644696583E-008
   57.3728750000000        -1.252190671455179E-008
   57.4859250000000        -1.252351901806096E-008
   57.5989750000000        -1.251633884801580E-008
   57.7120250000000        -1.250362211178616E-008
   57.8250750000000        -1.248928828403257E-008
   57.9381250000000        -1.247779214391940E-008
   58.0511750000000        -1.247395666794120E-008
   58.1642250000000        -1.248277109077524E-008
   58.2772750000000        -1.250916088494405E-008
   58.3903250000000        -1.255773805985128E-008
   58.5033750000000        -1.263254133404992E-008
   58.6164250000000        -1.273677818954691E-008
   58.7294750000000        -1.287258105107271E-008
   58.8425250000000        -1.304079027329377E-008
   58.9555750000000        -1.324077715640758E-008
   59.0686250000000        -1.347031875421230E-008
   59.1816750000000        -1.372553539575935E-008
   59.2947250000000        -1.400090001104658E-008
   59.4077750000000        -1.428932531992862E-008
   59.5208250000000        -1.458233244444042E-008
   59.6338750000000        -1.487030093064358E-008
   59.7469250000000        -1.514279620901226E-008
   59.8599750000000        -1.538896675127636E-008
   59.9730250000000        -1.559799947018640E-008
   60.0860750000000        -1.575961790936117E-008
   60.1991250000000        -1.586460469872214E-008
   60.3121750000000        -1.590532699601675E-008
   60.4252250000000        -1.587624135481862E-008
   60.5382750000000        -1.577435320377626E-008
   60.6513250000000        -1.559960664646645E-008
   60.7643750000000        -1.535518074179252E-008
   60.8774250000000        -1.504767005807182E-008
   60.9904750000000        -1.468713158963737E-008
   61.1035250000000        -1.428698369827437E-008
   61.2165750000000        -1.386374802153956E-008
   61.3296250000000        -1.343663190042421E-008
   61.4426750000000        -1.302695547144304E-008
   61.5557250000000        -1.265743469459521E-008
   61.6687750000000        -1.235133842907124E-008
   61.7818250000000        -1.213154582451224E-008
   61.8948750000000        -1.201953562352644E-008
   62.0079250000000        -1.203434521331578E-008
   62.1209750000000        -1.219154185375408E-008
   62.2340250000000        -1.250225056873332E-008
   62.3470750000000        -1.297228559479867E-008
   62.4601250000000        -1.360143093156851E-008
   62.5731750000000        -1.438291276343487E-008
   62.6862250000000        -1.530310195877463E-008
   62.7992750000000        -1.634147841018539E-008
   62.9123250000000        -1.747087931094062E-008
   63.0253750000000        -1.865804430256726E-008
   63.1384250000000        -1.986445821010003E-008
   63.2514750000000        -2.104747913005030E-008
   63.3645250000000        -2.216172794677400E-008
   63.4775750000000        -2.316070100474096E-008
   63.5906250000000        -2.399855637143504E-008
   63.7036750000000        -2.463201287534994E-008
   63.8167250000000        -2.502229150828385E-008
   63.9297750000000        -2.513702232320011E-008
   64.0428250000000        -2.495203577718149E-008
   64.1558750000000        -2.445295619438850E-008
   64.2689250000000        -2.363651731592095E-008
   64.3819750000000        -2.251152639013042E-008
   64.4950250000000        -2.109941209524996E-008
   64.6080750000000        -1.943430485258922E-008
   64.7211250000000        -1.756261386651758E-008
   64.8341750000000        -1.554208345342278E-008
   64.9472250000000        -1.344033201388103E-008
   65.0602750000000        -1.133289843103957E-008
   65.1733250000000        -9.300842689891925E-009
   65.2863750000000        -7.427969287763892E-009
   65.3994250000000        -5.797761862653926E-009
   65.5124750000000        -4.490134767777999E-009