 -0.847875000000000         2.592762585750827E-024
 -0.734825000000000        -1.376206070908779E-023
 -0.621775000000000        -1.838058602855884E-022
 -0.508725000000000        -1.081577526607127E-021
 -0.395675000000000        -4.771762126180717E-021
 -0.282625000000000        -1.746108474302909E-020
 -0.169575000000000        -5.491365909989589E-020
 -5.652500000000005E-002   -1.513765244111641E-019
  5.652499999999994E-002   -3.714652754189546E-019
  0.169575000000000        -8.233153517381414E-019
  0.282625000000000        -1.670976094977468E-018
  0.395675000000000        -3.146044368609049E-018
  0.508725000000000        -5.559872458064656E-018
  0.621775000000000        -9.317384061671615E-018
  0.734825000000000        -1.493233209259768E-017
  0.847875000000000        -2.304374678213451E-017
  0.960925000000000        -3.443053678755280E-017
   1.07397500000000        -5.002113830428323E-017
   1.18702500000000        -7.090187417106034E-017
   1.30007500000000        -9.832007552268893E-017
   1.41312500000000        -1.336797951835635E-016
   1.52617500000000        -1.785305148741804E-016
   1.63922500000000        -2.345505813393468E-016
   1.75227500000000        -3.035268649856994E-016
   1.86532500000000        -3.873221065641015E-016
   1.97837500000000        -4.878388661240745E-016
   2.09142500000000        -6.069800270673085E-016
   2.20447500000000        -7.466008576483477E-016
   2.31752500000000        -9.084517143208064E-016
   2.43057500000000        -1.094132895535540E-015
   2.54362500000000        -1.305047635483702E-015
   2.65667500000000        -1.542340247382968E-015
   2.76972500000000        -1.806861341133768E-015
   2.88277500000000        -2.099125034771155E-015
   2.99582500000000        -2.419269844853330E-015
   3.10887500000000        -2.767040671792983E-015
   3.22192500000000        -3.141788862459799E-015
   3.33497500000000        -3.542468986428161E-015
   3.44802500000000        -3.967640245073750E-015
   3.56107500000000        -4.415506802170634E-015
   3.67412500000000        -4.883953652679939E-015
   3.78717500000000        -5.370599364826519E-015
   3.90022500000000        -5.872848629006289E-015
   4.01327500000000        -6.387959615613475E-015
   4.12632500000000        -6.913106505555040E-015
   4.23937500000000        -7.445450789200243E-015
   4.35242500000000        -7.982215897306447E-015
   4.46547500000000        -8.520729606477936E-015
   4.57852500000000        -9.058479427196802E-015
   4.69157500000000        -9.593151052316749E-015
   4.80462500000000        -1.012265920268329E-014
   4.91767500000000        -1.064515940608923E-014
   5.03072500000000        -1.115903687162646E-014
   5.14377500000000        -1.166289128174676E-014
   5.25682500000000        -1.215550906257054E-014
   5.36987500000000        -1.263581791210820E-014
   5.48292500000000        -1.310285354072623E-014
   5.59597500000000        -1.355571185926765E-014
   5.70902500000000        -1.399349401150272E-014
   5.82207500000000        -1.441525540161740E-014
   5.93512500000000        -1.481999137917198E-014
   6.04817500000000        -1.520663585811950E-014
   6.16122500000000        -1.557403341327227E-014
   6.27427500000000        -1.592095496355817E-014
   6.38732500000000        -1.624616574365324E-014
   6.50037500000000        -1.654849391263559E-014
   6.61342500000000        -1.682688745784254E-014
   6.72647500000000        -1.708052221843200E-014
   6.83952500000000        -1.730891897468184E-014
   6.95257500000000        -1.751206145653185E-014
   7.06562500000000        -1.769049956221386E-014
   7.17867500000000        -1.784547102181007E-014
   7.29172500000000        -1.797901026707398E-014
   7.40477500000000        -1.809397985974773E-014
   7.51782500000000        -1.819414196347462E-014
   7.63087500000000        -1.828417874482783E-014
   7.74392500000000        -1.836965513499706E-014
   7.85697500000000        -1.845693497008961E-014
   7.97002500000000        -1.855307758013529E-014
   8.08307500000000        -1.866569035241831E-014
   8.19612500000000        -1.880272791860063E-014
   8.30917500000000        -1.897229915668193E-014
   8.42222500000000        -1.918239748284732E-014
   8.53527500000000        -1.944065521718337E-014
   8.64832500000000        -1.975410654525407E-014
   8.76137500000000        -2.012893017210349E-014
   8.87442500000000        -2.057022433618158E-014
   8.98747500000000        -2.108182997917974E-014
   9.10052500000000        -2.166618323795119E-014
   9.21357500000000        -2.232422179653932E-014
   9.32662500000000        -2.305536070800212E-014
   9.43967500000000        -2.385752505626706E-014
   9.55272500000000        -2.472724766670566E-014
   9.66577500000000        -2.565981578702912E-014
   9.77882500000000        -2.664949461782049E-014
   9.89187500000000        -2.768978240703697E-014
   10.0049250000000        -2.877369133531126E-014
   10.1179750000000        -2.989408315536601E-014
   10.2310250000000        -3.104398774498473E-014
   10.3440750000000        -3.221690058406516E-014
   10.4571250000000        -3.340707799991551E-014
   10.5701750000000        -3.460979203262986E-014
   10.6832250000000        -3.582151292195703E-014
   10.7962750000000        -3.704004117573654E-014
   10.9093250000000        -3.826458056967811E-014
   11.0223750000000        -3.949570272011494E-014
   11.1354250000000        -4.073526295367084E-014
   11.2484750000000        -4.198625808806057E-014
   11.3615250000000        -4.325257460244211E-014
   11.4745750000000        -4.453872499241768E-014
   11.5876250000000        -4.584954964283294E-014
   11.7006750000000        -4.718985779578285E-014
   11.8137250000000        -4.856410375294694E-014
   11.9267750000000        -4.997609032404967E-014
   12.0398250000000        -5.142865592557404E-014
   12.1528750000000        -5.292345076743589E-014
   12.2659250000000        -5.446078790932710E-014
   12.3789750000000        -5.603954513385803E-014
   12.4920250000000        -5.765716947267291E-014
   12.6050750000000        -5.930973865970953E-014
   12.7181250000000        -6.099214076073266E-014
   12.8311750000000        -6.269832694853459E-014
   12.9442250000000        -6.442160139723655E-014
   13.0572750000000        -6.615498509449119E-014
   13.1703250000000        -6.789160329153506E-014
   13.2833750000000        -6.962508665058563E-014
   13.3964250000000        -7.134996811663161E-014
   13.5094750000000        -7.306203592314116E-014
   13.6225250000000        -7.475863931656815E-014
   13.7355750000000        -7.643892845656442E-014
   13.8486250000000        -7.810401832498983E-014
   13.9616750000000        -7.975704636780979E-014
   14.0747250000000        -8.140312483856624E-014
   14.1877750000000        -8.304920958681687E-014
   14.3008250000000        -8.470386211479555E-014
   14.4138750000000        -8.637693182248239E-014
   14.5269250000000        -8.807916802455840E-014
   14.6399750000000        -8.982175968722314E-014
   14.7530250000000        -9.161588003629846E-014
   14.8660750000000        -9.347221032073424E-014
   14.9791250000000        -9.540046106201607E-014
   15.0921750000000        -9.740894622977738E-014
   15.2052250000000        -9.950423146665225E-014
   15.3182750000000        -1.016908629074231E-013
   15.4313250000000        -1.039711673419075E-013
   15.5443750000000        -1.063451780371632E-013
   15.6574250000000        -1.088106793589284E-013
   15.7704750000000        -1.113633364213096E-013
   15.8835250000000        -1.139969492072578E-013
   15.9965750000000        -1.167037814545501E-013
   16.1096250000000        -1.194749746422860E-013
   16.2226750000000        -1.223010158945649E-013
   16.3357250000000        -1.251722199939621E-013
   16.4487750000000        -1.280792428431992E-013
   16.5618250000000        -1.310135559773965E-013
   16.6748750000000        -1.339678688931513E-013
   16.7879250000000        -1.369364999572902E-013
   16.9009750000000        -1.399156579843901E-013
   17.0140250000000        -1.429035986173322E-013
   17.1270750000000        -1.459007148929813E-013
   17.2401250000000        -1.489094894825292E-013
   17.3531750000000        -1.519343242367547E-013
   17.4662250000000        -1.549812754221109E-013
   17.5792750000000        -1.580576986296129E-013
   17.6923250000000        -1.611718295715104E-013
   17.8053750000000        -1.643323075148657E-013
   17.9184250000000        -1.675476447729455E-013
   18.0314750000000        -1.708257333978752E-013
   18.1445250000000        -1.741733551406913E-013
   18.2575750000000        -1.775957312080773E-013
   18.3706250000000        -1.810961526989678E-013
   18.4836750000000        -1.846757083019445E-013
   18.5967250000000        -1.883330965837935E-013
   18.7097750000000        -1.920645476236917E-013
   18.8228250000000        -1.958638791567099E-013
   18.9358750000000        -1.997226569260814E-013
   19.0489250000000        -2.036304737450208E-013
   19.1619750000000        -2.075752977157458E-013
   19.2750250000000        -2.115439194011589E-013
   19.3880750000000        -2.155224681090272E-013
   19.5011250000000        -2.194969488722139E-013
   19.6141750000000        -2.234537971073236E-013
   19.7272250000000        -2.273804287699435E-013
   19.8402750000000        -2.312657437875684E-013
   19.9533250000000        -2.351005866794938E-013
   20.0663750000000        -2.388781413187803E-013
   20.1794250000000        -2.425942067947116E-013
   20.2924750000000        -2.462473972016749E-013
   20.4055250000000        -2.498392262209718E-013
   20.5185750000000        -2.533740678922227E-013
   20.6316250000000        -2.568590372903095E-013
   20.7446750000000        -2.603037396492027E-013
   20.8577250000000        -2.637199653399207E-013
   20.9707750000000        -2.671212899682314E-013
   21.0838250000000        -2.705226106262868E-013
   21.1968750000000        -2.739396758954162E-013
   21.3099250000000        -2.773885766322595E-013
   21.4229750000000        -2.808852334564302E-013
   21.5360250000000        -2.844449276287364E-013
   21.6490750000000        -2.880818768378231E-013
   21.7621250000000        -2.918088477767886E-013
   21.8751750000000        -2.956368523110608E-013
   21.9882250000000        -2.995749246077279E-013
   22.1012750000000        -3.036299776070409E-013
   22.2143250000000        -3.078067580781614E-013
   22.3273750000000        -3.121078650650136E-013
   22.4404250000000        -3.165338646901596E-013
   22.5534750000000        -3.210834760297052E-013
   22.6665250000000        -3.257538247140263E-013
   22.7795750000000        -3.305407283498681E-013
   22.8926250000000        -3.354390128768346E-013
   23.0056750000000        -3.404428687064883E-013
   23.1187250000000        -3.455461950581207E-013
   23.2317750000000        -3.507429203255992E-013
   23.3448250000000        -3.560273070970250E-013
   23.4578750000000        -3.613942058275031E-013
   23.5709250000000        -3.668392756928813E-013
   23.6839750000000        -3.723591328226398E-013
   23.7970250000000        -3.779514295864137E-013
   23.9100750000000        -3.836148929732222E-013
   24.0231250000000        -3.893492497788298E-013
   24.1361750000000        -3.951551340867433E-013
   24.2492250000000        -4.010339368397683E-013
   24.3622750000000        -4.069875677665380E-013
   24.4753250000000        -4.130182159319191E-013
   24.5883750000000        -4.191280914136547E-013
   24.7014250000000        -4.253191399376458E-013
   24.8144750000000        -4.315927630560027E-013
   24.9275250000000        -4.379495663479346E-013
   25.0405750000000        -4.443891391515401E-013
   25.1536250000000        -4.509098783863200E-013
   25.2666750000000        -4.575088708389164E-013
   25.3797250000000        -4.641818444258498E-013
   25.4927750000000        -4.709231829302270E-013
   25.6058250000000        -4.777260188424401E-013
   25.7188750000000        -4.845824062494858E-013
   25.8319250000000        -4.914835566239778E-013
   25.9449750000000        -4.984201407772502E-013
   26.0580250000000        -5.053826419656386E-013
   26.1710750000000        -5.123617444030914E-013
   26.2841250000000        -5.193487564844482E-013
   26.3971750000000        -5.263360264106679E-013
   26.5102250000000        -5.333173477307674E-013
   26.6232750000000        -5.402883514869704E-013
   26.7363250000000        -5.472468385751204E-013
   26.8493750000000        -5.541930378926881E-013
   26.9624250000000        -5.611297844906674E-013
   27.0754750000000        -5.680626272901959E-013
   27.1885250000000        -5.749998149822656E-013
   27.3015750000000        -5.819521896842131E-013
   27.4146250000000        -5.889329804819205E-013
   27.5276750000000        -5.959574763354987E-013
   27.6407250000000        -6.030426274577133E-013
   27.7537750000000        -6.102065767254921E-013
   27.8668250000000        -6.174681098964312E-013
   27.9798750000000        -6.248460663730180E-013
   28.0929250000000        -6.323587552687354E-013
   28.2059750000000        -6.400233530675491E-013
   28.3190250000000        -6.478553262980296E-013
   28.4320750000000        -6.558679415273543E-013
   28.5451250000000        -6.640718044747277E-013
   28.6581750000000        -6.724745026501486E-013
   28.7712250000000        -6.810803835613973E-013
   28.8842750000000        -6.898904195728318E-013
   28.9973250000000        -6.989021959121327E-013
   29.1103750000000        -7.081100299379258E-013
   29.2234250000000        -7.175052270970042E-013
   29.3364750000000        -7.270764357747337E-013
   29.4495250000000        -7.368100917354374E-013
   29.5625750000000        -7.466909476532353E-013
   29.6756250000000        -7.567026565757763E-013
   29.7886750000000        -7.668283802972876E-013
   29.9017250000000        -7.770514237080423E-013
   30.0147750000000        -7.873558411284246E-013
   30.1278250000000        -7.977269613871219E-013
   30.2408750000000        -8.081518949548843E-013
   30.3539250000000        -8.186199459368569E-013
   30.4669750000000        -8.291228839971921E-013
   30.5800250000000        -8.396551170588451E-013
   30.6930750000000        -8.502137663625784E-013
   30.8061250000000        -8.607985960759342E-013
   30.9191750000000        -8.714118125450929E-013
   31.0322250000000        -8.820577922274103E-013
   31.1452750000000        -8.927426957649114E-013
   31.2583250000000        -9.034740144291042E-013
   31.3713750000000        -9.142600689812980E-013
   31.4844250000000        -9.251094794265981E-013
   31.5974750000000        -9.360306399347352E-013
   31.7105250000000        -9.470312109955446E-013
   31.8235750000000        -9.581176683739259E-013
   31.9366250000000        -9.692949132012258E-013
   32.0496750000000        -9.805659744692964E-013
   32.1627250000000        -9.919317989802123E-013
   32.2757750000000        -1.003391165139407E-012
   32.3888250000000        -1.014940711476880E-012
   32.5018750000000        -1.026575040224816E-012
   32.6149250000000        -1.038286950530476E-012
   32.7279750000000        -1.050067763225982E-012
   32.8410250000000        -1.061907723396290E-012
   32.9540750000000        -1.073796422313990E-012
   33.0671250000000        -1.085723293783449E-012
   33.1801750000000        -1.097678145047272E-012
   33.2932250000000        -1.109651602572473E-012
   33.4062750000000        -1.121635568841403E-012
   33.5193250000000        -1.133623652399851E-012
   33.6323750000000        -1.145611494666969E-012
   33.7454250000000        -1.157597004625404E-012
   33.8584750000000        -1.169580514762827E-012
   33.9715250000000        -1.181564841838171E-012
   34.0845750000000        -1.193555232568973E-012
   34.1976250000000        -1.205559212814278E-012
   34.3106750000000        -1.217586348009213E-012
   34.4237250000000        -1.229647923326295E-012
   34.5367750000000        -1.241756539329327E-012
   34.6498250000000        -1.253925673333377E-012
   34.7628750000000        -1.266169223242899E-012
   34.8759250000000        -1.278501023733781E-012
   34.9889750000000        -1.290934370337338E-012
   35.1020250000000        -1.303481591411400E-012
   35.2150750000000        -1.316153666080772E-012
   35.3281250000000        -1.328959897897542E-012
   35.4411750000000        -1.341907677770796E-012
   35.5542250000000        -1.355002328536174E-012
   35.6672750000000        -1.368247040136978E-012
   35.7803250000000        -1.381642913714759E-012
   35.8933750000000        -1.395189074697124E-012
   36.0064250000000        -1.408882893866559E-012
   36.1194750000000        -1.422720265272623E-012
   36.2325250000000        -1.436695954863922E-012
   36.3455750000000        -1.450803993859243E-012
   36.4586250000000        -1.465038072666318E-012
   36.5716750000000        -1.479391980990539E-012
   36.6847250000000        -1.493860012729338E-012
   36.7977750000000        -1.508437341612413E-012
   36.9108250000000        -1.523120336034199E-012
   37.0238750000000        -1.537906828764366E-012
   37.1369250000000        -1.552796312602267E-012
   37.2499750000000        -1.567790018633219E-012
   37.3630250000000        -1.582890923053497E-012
   37.4760750000000        -1.598103660935923E-012
   37.5891250000000        -1.613434346719734E-012
   37.7021750000000        -1.628890299018898E-012
   37.8152250000000        -1.644479697345666E-012
   37.9282750000000        -1.660211191612962E-012
   38.0413250000000        -1.676093442749297E-012
   38.1543750000000        -1.692134661963822E-012
   38.2674250000000        -1.708342146863732E-012
   38.3804750000000        -1.724721818905304E-012
   38.4935250000000        -1.741277805216762E-012
   38.6065750000000        -1.758012104814334E-012
   38.7196250000000        -1.774924309559380E-012
   38.8326750000000        -1.792011425670677E-012
   38.9457250000000        -1.809267823281573E-012
   39.0587750000000        -1.826685262999222E-012
   39.1718250000000        -1.844253075089281E-012
   39.2848750000000        -1.861958444434945E-012
   39.3979250000000        -1.879786773040072E-012
   39.5109750000000        -1.897722176802994E-012
   39.6240250000000        -1.915748062128186E-012
   39.7370750000000        -1.933847722717971E-012
   39.8501250000000        -1.952004993400698E-012
   39.9631750000000        -1.970204915253067E-012
   40.0762250000000        -1.988434354748891E-012
   40.1892750000000        -2.006682589608059E-012
   40.3023250000000        -2.024941842120930E-012
   40.4153750000000        -2.043207686312856E-012
   40.5284250000000        -2.061479315214008E-012
   40.6414750000000        -2.079759713127576E-012
   40.7545250000000        -2.098055664079255E-012
   40.8675750000000        -2.116377629620545E-012
   40.9806250000000        -2.134739451749098E-012
   41.0936750000000        -2.153157926893661E-012
   41.2067250000000        -2.171652277013167E-012
   41.3197750000000        -2.190243490677230E-012
   41.4328250000000        -2.208953595521134E-012
   41.5458750000000        -2.227804875492301E-012
   41.6589250000000        -2.246819087609510E-012
   41.7719750000000        -2.266016679973809E-012
   41.8850250000000        -2.285416063436521E-012
   41.9980750000000        -2.305032969591977E-012
   42.1111250000000        -2.324879910567211E-012
   42.2241750000000        -2.344965767115908E-012
   42.3372250000000        -2.365295536821870E-012
   42.4502750000000        -2.385870240021758E-012
   42.5633250000000        -2.406687005335105E-012
   42.6763750000000        -2.427739318805049E-012
   42.7894250000000        -2.449017416290703E-012
   42.9024750000000        -2.470508827045783E-012
   43.0155250000000        -2.492199038877320E-012
   43.1285750000000        -2.514072233600921E-012
   43.2416250000000        -2.536112094534562E-012
   43.3546750000000        -2.558302637134793E-012
   43.4677250000000        -2.580628993228797E-012
   43.5807750000000        -2.603078161906955E-012
   43.6938250000000        -2.625639667250734E-012
   43.8068750000000        -2.648306081685907E-012
   43.9199250000000        -2.671073405255296E-012
   44.0329750000000        -2.693941285214838E-012
   44.1460250000000        -2.716913051277955E-012
   44.2590750000000        -2.739995529523404E-012
   44.3721250000000        -2.763198714784302E-012
   44.4851750000000        -2.786535270303645E-012
   44.5982250000000        -2.810019834080965E-012
   44.7112750000000        -2.833668248067359E-012
   44.8243250000000        -2.857496667910880E-012
   44.9373750000000        -2.881520613953416E-012
   45.0504250000000        -2.905754041434357E-012
   45.1634750000000        -2.930208406566692E-012
   45.2765250000000        -2.954891821650049E-012
   45.3895750000000        -2.979808329684814E-012
   45.5026250000000        -3.004957321179034E-012
   45.6156750000000        -3.030333153287548E-012
   45.7287250000000        -3.055924953797364E-012
   45.8417750000000        -3.081716656152144E-012
   45.9548250000000        -3.107687293368020E-012
   46.0678750000000        -3.133811498857396E-012
   46.1809250000000        -3.160060238059040E-012
   46.2939750000000        -3.186401759592602E-012
   46.4070250000000        -3.212802704805190E-012
   46.5200750000000        -3.239229342708569E-012
   46.6331250000000        -3.265648924154122E-012
   46.7461750000000        -3.292031067622408E-012
   46.8592250000000        -3.318349140112075E-012
   46.9722750000000        -3.344581554999440E-012
   47.0853250000000        -3.370712962794937E-012
   47.1983750000000        -3.396735277743475E-012
   47.3114250000000        -3.422648442479879E-012
   47.4244750000000        -3.448460971985357E-012
   47.5375250000000        -3.474190160197267E-012
   47.6505750000000        -3.499861979368637E-012
   47.7636250000000        -3.525510629629032E-012
   47.8766750000000        -3.551177726866405E-012
   47.9897250000000        -3.576911196698882E-012
   48.1027750000000        -3.602763836744763E-012
   48.2158250000000        -3.628791602874671E-012
   48.3288750000000        -3.655051678722863E-012
   48.4419250000000        -3.681600397586097E-012
   48.5549750000000        -3.708491060802559E-012
   48.6680250000000        -3.735771733395668E-012
   48.7810750000000        -3.763483130342410E-012
   48.8941250000000        -3.791656670669613E-012
   49.0071750000000        -3.820312754001498E-012
   49.1202250000000        -3.849459371134571E-012
   49.2332750000000        -3.879091128979323E-012
   49.3463250000000        -3.909188731382296E-012
   49.4593750000000        -3.939718979357092E-012
   49.5724250000000        -3.970635327151832E-012
   49.6854750000000        -4.001879002468055E-012
   49.7985250000000        -4.033380687278398E-012
   49.9115750000000        -4.065062747685504E-012
   50.0246250000000        -4.096841927525244E-012
   50.1376750000000        -4.128632457161736E-012
   50.2507250000000        -4.160349481020074E-012
   50.3637750000000        -4.191912670008086E-012
   50.4768250000000        -4.223249918178955E-012
   50.5898750000000        -4.254300958763265E-012
   50.7029250000000        -4.285020742770495E-012
   50.8159750000000        -4.315382449887355E-012
   50.9290250000000        -4.345379962802724E-012
   51.0420750000000        -4.375029682778003E-012
   51.1551250000000        -4.404371556990502E-012
   51.2681750000000        -4.433469207976360E-012
   51.3812250000000        -4.462409122463883E-012
   51.4942750000000        -4.491298819220045E-012
   51.6073250000000        -4.520264041535384E-012
   51.7203750000000        -4.549444996896595E-012
   51.8334250000000        -4.578991726349827E-012
   51.9464750000000        -4.609058733655964E-012
   52.0595250000000        -4.639799020976127E-012
   52.1725750000000        -4.671357731776869E-012
   52.2856250000000        -4.703865674316676E-012
   52.3986750000000        -4.737432943451522E-012
   52.5117250000000        -4.772142875458473E-012
   52.6247750000000        -4.808046662032802E-012
   52.7378250000000        -4.845158866406042E-012
   52.8508750000000        -4.883454077304421E-012
   52.9639250000000        -4.922864911240314E-012
   53.0769750000000        -4.963281577289254E-012
   53.1900250000000        -5.004553084071238E-012
   53.3030750000000        -5.046490156970394E-012
   53.4161250000000        -5.088869919458325E-012
   53.5291750000000        -5.131442202143536E-012
   53.6422250000000        -5.173937378916715E-012
   53.7552750000000        -5.216075506230503E-012
   53.8683250000000        -5.257576479419644E-012
   53.9813750000000        -5.298170915079288E-012
   54.0944250000000        -5.337611294457078E-012
   54.2074750000000        -5.375682984563006E-012
   54.3205250000000        -5.412214751673075E-012
   54.4335750000000        -5.447088215652249E-012
   54.5466250000000        -5.480245848640776E-012
   54.6596750000000        -5.511697156064483E-012
   54.7727250000000        -5.541522638697362E-012
   54.8857750000000        -5.569875266997432E-012
   54.9988250000000        -5.596979245953594E-012
   55.1118750000000        -5.623125998058184E-012
   55.2249250000000        -5.648667331186100E-012
   55.3379750000000        -5.674005919028397E-012
   55.4510250000000        -5.699583303134768E-012
   55.5640750000000        -5.725865745708071E-012
   55.6771250000000        -5.753328375310893E-012
   55.7901750000000        -5.782438132731333E-012
   55.9032250000000        -5.813636136047635E-012
   56.0162750000000        -5.847320080732939E-012
   56.1293250000000        -5.883827364002776E-012
   56.2423750000000        -5.923419617810783E-012
   56.3554250000000        -5.966269287774181E-012
   56.4684750000000        -6.012448875344435E-012
   56.5815250000000        -6.061923365912109E-012
   56.6945750000000        -6.114546255822542E-012
   56.8076250000000        -6.170059480354432E-012
   56.9206750000000        -6.228097415762649E-012
   57.0337250000000        -6.288194965051672E-012
   57.1467750000000        -6.349799563395845E-012
   57.2598250000000        -6.412286808960053E-012
   57.3728750000000        -6.474979286897762E-012
   57.4859250000000        -6.537167975468411E-012
   57.5989750000000        -6.598135528104847E-012
   57.7120250000000        -6.657180660137939E-012
   57.8250750000000        -6.713642773118659E-012
   57.9381250000000        -6.766925896536490E-012
   58.0511750000000        -6.816521133361930E-012
   58.1642250000000        -6.862026695357360E-012
   58.2772750000000        -6.903164802665591E-012
   58.3903250000000        -6.939794804110230E-012
   58.5033750000000        -6.971921914465492E-012
   58.6164250000000        -6.999701277304302E-012
   58.7294750000000        -7.023437114670130E-012
   58.8425250000000        -7.043576937928602E-012
   58.9555750000000        -7.060701022187570E-012
   59.0686250000000        -7.075507438075772E-012
   59.1816750000000        -7.088793151165342E-012
   59.2947250000000        -7.101431854145861E-012
   59.4077750000000        -7.114349246776545E-012
   59.5208250000000        -7.128496601905656E-012
   59.6338750000000        -7.144823507890916E-012
   59.7469250000000        -7.164250651845061E-012
   59.8599750000000        -7.187643472969445E-012
   59.9730250000000        -7.215787499890021E-012
   60.0860750000000        -7.249366036901801E-012
   60.1991250000000        -7.288940772923586E-012
   60.3121750000000        -7.334935762244871E-012
   60.4252250000000        -7.387625035612438E-012
   60.5382750000000        -7.447123953615619E-012
   60.6513250000000        -7.513384342363629E-012
   60.7643750000000        -7.586193277647877E-012
   60.8774250000000        -7.665175228500743E-012
   60.9904750000000        -7.749797307740890E-012
   61.1035250000000        -7.839377273050407E-012
   61.2165750000000        -7.933093887765591E-012
   61.3296250000000        -8.029999340432330E-012
   61.4426750000000        -8.129033454548647E-012
   61.5557250000000        -8.229039501992390E-012
   61.6687750000000        -8.328781474409689E-012
   61.7818250000000        -8.426962904578079E-012
   61.8948750000000        -8.522247294077624E-012
   62.0079250000000        -8.613280347247786E-012
   62.1209750000000        -8.698714318043243E-012
   62.2340250000000        -8.777234654978618E-012
   62.3470750000000        -8.847589238615360E-012
   62.4601250000000        -8.908620373346846E-012
   62.5731750000000        -8.959299497450137E-012
   62.6862250000000        -8.998764426831434E-012
   62.7992750000000        -9.026358729760643E-012
   62.9123250000000        -9.041672383578209E-012
   63.0253750000000        -9.044582692064171E-012
   63.1384250000000        -9.035294014603303E-012
   63.2514750000000        -9.014374458101964E-012
   63.3645250000000        -8.982787541653215E-012
   63.4775750000000        -8.941916413454682E-012
   63.5906250000000        -8.893578142978263E-012
   63.7036750000000        -8.840025534403898E-012
   63.8167250000000        -8.783933937143531E-012
   63.9297750000000        -8.728370820577598E-012
   64.0428250000000        -8.676746270882288E-012
   64.1558750000000        -8.632743112584038E-012
   64.2689250000000        -8.600226052720892E-012
   64.3819750000000        -8.583130229037617E-012
   64.4950250000000        -8.585330488605037E-012
   64.6080750000000        -8.610493869690135E-012
   64.7211250000000        -8.661918939026984E-012
   64.8341750000000        -8.742366787400336E-012
   64.9472250000000        -8.853889651658061E-012
   65.0602750000000        -8.997664116687225E-012
   65.1733250000000        -9.173836650795026E-012
   65.2863750000000        -9.381389845971306E-012
   65.3994250000000        -9.618037977547103E-012
   65.5124750000000        -9.880160345134003E-012