 -0.847875000000000        -1.506791921505178E-018
 -0.734825000000000        -1.509550940163398E-018
 -0.621775000000000        -1.367507676505451E-018
 -0.508725000000000        -1.894752598506746E-019
 -0.395675000000000         5.985691666836824E-018
 -0.282625000000000         3.156488786846991E-017
 -0.169575000000000         1.204382667604936E-016
 -5.652500000000005E-002    3.861262157778750E-016
  5.652499999999994E-002    1.081187738884490E-015
  0.169575000000000         2.696395710292151E-015
  0.282625000000000         6.079863192345679E-015
  0.395675000000000         1.256054090311825E-014
  0.508725000000000         2.406490341838414E-014
  0.621775000000000         4.322491228700561E-014
  0.734825000000000         7.348130005385278E-014
  0.847875000000000         1.191861868707867E-013
  0.960925000000000         1.857063921491521E-013
   1.07397500000000         2.795213429923035E-013
   1.18702500000000         4.083124020462408E-013
   1.30007500000000         5.810324646837387E-013
   1.41312500000000         8.079480500890749E-013
   1.52617500000000         1.100647530557255E-012
   1.63922500000000         1.472002874077330E-012
   1.75227500000000         1.936078029373365E-012
   1.86532500000000         2.507986802988501E-012
   1.97837500000000         3.203684404442155E-012
   2.09142500000000         4.039693979296628E-012
   2.20447500000000         5.032771574277561E-012
   2.31752500000000         6.199508802836816E-012
   2.43057500000000         7.555879764516048E-012
   2.54362500000000         9.116745837938521E-012
   2.65667500000000         1.089531810774063E-011
   2.76972500000000         1.290260141308983E-011
   2.88277500000000         1.514683865665372E-011
   2.99582500000000         1.763295860785641E-011
   3.10887500000000         2.036207389560740E-011
   3.22192500000000         2.333101387705976E-011
   3.33497500000000         2.653194202642664E-011
   3.44802500000000         2.995204948351644E-011
   3.56107500000000         3.357338404166778E-011
   3.67412500000000         3.737274712180529E-011
   3.78717500000000         4.132176224043248E-011
   3.90022500000000         4.538702951820977E-011
   4.01327500000000         4.953046229242836E-011
   4.12632500000000         5.370966995541428E-011
   4.23937500000000         5.787847824971277E-011
   4.35242500000000         6.198754264157930E-011
   4.46547500000000         6.598501188642499E-011
   4.57852500000000         6.981723459384362E-011
   4.69157500000000         7.342943958675242E-011
   4.80462500000000         7.676641659425256E-011
   4.91767500000000         7.977315674855357E-011
   5.03072500000000         8.239538365976766E-011
   5.14377500000000         8.458000685978109E-011
   5.25682500000000         8.627543678672653E-011
   5.36987500000000         8.743174829128775E-011
   5.48292500000000         8.800075122644848E-011
   5.59597500000000         8.793590908661694E-011
   5.70902500000000         8.719213992513083E-011
   5.82207500000000         8.572553383600444E-011
   5.93512500000000         8.349296670771814E-011
   6.04817500000000         8.045175086385097E-011
   6.16122500000000         7.655925217089747E-011
   6.27427500000000         7.177257221685645E-011
   6.38732500000000         6.604832142042318E-011
   6.50037500000000         5.934255092317265E-011
   6.61342500000000         5.161085090222122E-011
   6.72647500000000         4.280864475009312E-011
   6.83952500000000         3.289171657629864E-011
   6.95257500000000         2.181695748730872E-011
   7.06562500000000         9.543355897636501E-012
   7.17867500000000        -3.966836987661687E-012
   7.29172500000000        -1.874675940900848E-011
   7.40477500000000        -3.482347022613672E-011
   7.51782500000000        -5.221641904575548E-011
   7.63087500000000        -7.093590840726285E-011
   7.74392500000000        -9.098165641228921E-011
   7.85697500000000        -1.123414513598384E-010
   7.97002500000000        -1.349901177217229E-010
   8.08307500000000        -1.588886828660992E-010
   8.19612500000000        -1.839839687119984E-010
   8.30917500000000        -2.102085516605087E-010
   8.42222500000000        -2.374811324074241E-010
   8.53527500000000        -2.657073755913876E-010
   8.64832500000000        -2.947811486220183E-010
   8.76137500000000        -3.245861837127823E-010
   8.87442500000000        -3.549980664842640E-010
   8.98747500000000        -3.858865311481581E-010
   9.10052500000000        -4.171179248757368E-010
   9.21357500000000        -4.485577705624126E-010
   9.32662500000000        -4.800733231514639E-010
   9.43967500000000        -5.115360016675355E-010
   9.55272500000000        -5.428235859867756E-010
   9.66577500000000        -5.738220937396584E-010
   9.77882500000000        -6.044272510643481E-010
   9.89187500000000        -6.345454532267487E-010
   10.0049250000000        -6.640942513028525E-010
   10.1179750000000        -6.930022481898762E-010
   10.2310250000000        -7.212084929325337E-010
   10.3440750000000        -7.486613586535260E-010
   10.4571250000000        -7.753170119817743E-010
   10.5701750000000        -8.011374971373717E-010
   10.6832250000000        -8.260886090335113E-010
   10.7962750000000        -8.501376431725804E-010
   10.9093250000000        -8.732511415201526E-010
   11.0223750000000        -8.953927803798965E-010
   11.1354250000000        -9.165215563034287E-010
   11.2484750000000        -9.365903040353147E-010
   11.3615250000000        -9.555447172959537E-010
   11.4745750000000        -9.733229256498790E-010
   11.5876250000000        -9.898556188444023E-010
   11.7006750000000        -1.005066798703669E-009
   11.8137250000000        -1.018875058957901E-009
   11.9267750000000        -1.031195416223791E-009
   12.0398250000000        -1.041941485892534E-009
   12.1528750000000        -1.051028036264461E-009
   12.2659250000000        -1.058373628461047E-009
   12.3789750000000        -1.063903298656876E-009
   12.4920250000000        -1.067551062600593E-009
   12.6050750000000        -1.069262090800907E-009
   12.7181250000000        -1.068994464715562E-009
   12.8311750000000        -1.066720286693817E-009
   12.9442250000000        -1.062426119168514E-009
   13.0572750000000        -1.056112672565926E-009
   13.1703250000000        -1.047793690015220E-009
   13.2833750000000        -1.037494058078271E-009
   13.3964250000000        -1.025247189394855E-009
   13.5094750000000        -1.011091788862506E-009
   13.6225250000000        -9.950680856548466E-010
   13.7355750000000        -9.772137582795454E-010
   13.8486250000000        -9.575596790814114E-010
   13.9616750000000        -9.361256959351977E-010
   14.0747250000000        -9.129166603297838E-010
   14.1877750000000        -8.879188847540746E-010
   14.3008250000000        -8.610972351001942E-010
   14.4138750000000        -8.323929558412484E-010
   14.5269250000000        -8.017224317192528E-010
   14.6399750000000        -7.689769018994613E-010
   14.7530250000000        -7.340231743387900E-010
   14.8660750000000        -6.967053429048661E-010
   14.9791250000000        -6.568474330768217E-010
   15.0921750000000        -6.142568766353358E-010
   15.2052250000000        -5.687286874976630E-010
   15.3182750000000        -5.200500964077756E-010
   15.4313250000000        -4.680055045823632E-010
   15.5443750000000        -4.123815018353165E-010
   15.6574250000000        -3.529717327815029E-010
   15.7704750000000        -2.895813905207707E-010
   15.8835250000000        -2.220311520513416E-010
   15.9965750000000        -1.501603181823922E-010
   16.1096250000000        -7.382915616725194E-011
   16.2226750000000         7.079800656704974E-012
   16.3357250000000         9.266143080980602E-011
   16.4487750000000         1.829887058925936E-010
   16.5618250000000         2.781143322747881E-010
   16.6748750000000         3.780732543421505E-010
   16.7879250000000         4.828858139192820E-010
   16.9009750000000         5.925614633254153E-010
   17.0140250000000         7.071028064553891E-010
   17.1270750000000         8.265097038118488E-010
   17.2401250000000         9.507832899742361E-010
   17.3531750000000         1.079929642960434E-009
   17.4662250000000         1.213962933659023E-009
   17.5792750000000         1.352907885421218E-009
   17.6923250000000         1.496801429448923E-009
   17.8053750000000         1.645693446868764E-009
   17.9184250000000         1.799646597900450E-009
   18.0314750000000         1.958735213522045E-009
   18.1445250000000         2.123043338439183E-009
   18.2575750000000         2.292662043101890E-009
   18.3706250000000         2.467686083293084E-009
   18.4836750000000         2.648210188877017E-009
   18.5967250000000         2.834325086716495E-009
   18.7097750000000         3.026113529212241E-009
   18.8228250000000         3.223646508765632E-009
   18.9358750000000         3.426979869689972E-009
   19.0489250000000         3.636151512776567E-009
   19.1619750000000         3.851179351970192E-009
   19.2750250000000         4.072060083529398E-009
   19.3880750000000         4.298768957538646E-009
   19.5011250000000         4.531260464595379E-009
   19.6141750000000         4.769470031355055E-009
   19.7272250000000         5.013316581975814E-009
   19.8402750000000         5.262705931904538E-009
   19.9533250000000         5.517534827825053E-009
   20.0663750000000         5.777695487548733E-009
   20.1794250000000         6.043080478068562E-009
   20.2924750000000         6.313587666343209E-009
   20.4055250000000         6.589125127652487E-009
   20.5185750000000         6.869615696481792E-009
   20.6316250000000         7.155001119318508E-009
   20.7446750000000         7.445245510119688E-009
   20.8577250000000         7.740338076007655E-009
   20.9707750000000         8.040294979528397E-009
   21.0838250000000         8.345160263954198E-009
   21.1968750000000         8.655005848335021E-009
   21.3099250000000         8.969930623126244E-009
   21.4229750000000         9.290058672304625E-009
   21.5360250000000         9.615536717389253E-009
   21.6490750000000         9.946530950459082E-009
   21.7621250000000         1.028322333735320E-008
   21.8751750000000         1.062580759662431E-008
   21.9882250000000         1.097448500458032E-008
   22.1012750000000         1.132946017587288E-008
   22.2143250000000         1.169093702639790E-008
   22.3273750000000         1.205911503167815E-008
   22.4404250000000         1.243418590545293E-008
   22.5534750000000         1.281633083867290E-008
   22.6665250000000         1.320571834973687E-008
   22.7795750000000         1.360250282287725E-008
   22.8926250000000         1.400682373354367E-008
   23.0056750000000         1.441880554794260E-008
   23.1187250000000         1.483855827597566E-008
   23.2317750000000         1.526617862944043E-008
   23.3448250000000         1.570175165938027E-008
   23.4578750000000         1.614535281098189E-008
   23.5709250000000         1.659705024327006E-008
   23.6839750000000         1.705690736149366E-008
   23.7970250000000         1.752498535679878E-008
   23.9100750000000         1.800134566643264E-008
   24.0231250000000         1.848605227864997E-008
   24.1361750000000         1.897917371694078E-008
   24.2492250000000         1.948078467299186E-008
   24.3622750000000         1.999096719980722E-008
   24.4753250000000         2.050981137735942E-008
   24.5883750000000         2.103741553179420E-008
   24.7014250000000         2.157388591506595E-008
   24.8144750000000         2.211933589846759E-008
   24.9275250000000         2.267388472656442E-008
   25.0405750000000         2.323765589970302E-008
   25.1536250000000         2.381077526985981E-008
   25.2666750000000         2.439336892330434E-008
   25.3797250000000         2.498556097257285E-008
   25.4927750000000         2.558747137324774E-008
   25.6058250000000         2.619921386013074E-008
   25.7188750000000         2.682089413444504E-008
   25.8319250000000         2.745260838987738E-008
   25.9449750000000         2.809444227553439E-008
   26.0580250000000         2.874647036424577E-008
   26.1710750000000         2.940875620133137E-008
   26.2841250000000         3.008135294504900E-008
   26.3971750000000         3.076430460536974E-008
   26.5102250000000         3.145764788942494E-008
   26.6232750000000         3.216141460169200E-008
   26.7363250000000         3.287563451565496E-008
   26.8493750000000         3.360033865595519E-008
   26.9624250000000         3.433556283325646E-008
   27.0754750000000         3.508135136077088E-008
   27.1885250000000         3.583776077363804E-008
   27.3015750000000         3.660486343159246E-008
   27.4146250000000         3.738275079643515E-008
   27.5276750000000         3.817153634932378E-008
   27.6407250000000         3.897135789586029E-008
   27.7537750000000         3.978237923563942E-008
   27.8668250000000         4.060479106704762E-008
   27.9798750000000         4.143881105406177E-008
   28.0929250000000         4.228468305139512E-008
   28.2059750000000         4.314267545525699E-008
   28.3190250000000         4.401307874178131E-008
   28.4320750000000         4.489620224613070E-008
   28.5451250000000         4.579237028595893E-008
   28.6581750000000         4.670191773622078E-008
   28.7712250000000         4.762518526557563E-008
   28.8842750000000         4.856251433229849E-008
   28.9973250000000         4.951424216781667E-008
   29.1103750000000         5.048069692840588E-008
   29.2234250000000         5.146219316826759E-008
   29.3364750000000         5.245902784795965E-008
   29.4495250000000         5.347147696452753E-008
   29.5625750000000         5.449979301599278E-008
   29.6756250000000         5.554420328269208E-008
   29.7886750000000         5.660490908110719E-008
   29.9017250000000         5.768208592384333E-008
   30.0147750000000         5.877588462633501E-008
   30.1278250000000         5.988643325885186E-008
   30.2408750000000         6.101383985522207E-008
   30.3539250000000         6.215819575045863E-008
   30.4669750000000         6.331957936874343E-008
   30.5800250000000         6.449806035413397E-008
   30.6930750000000         6.569370374036731E-008
   30.8061250000000         6.690657407991937E-008
   30.9191750000000         6.813673930384709E-008
   31.0322250000000         6.938427411597201E-008
   31.1452750000000         7.064926283692669E-008
   31.2583250000000         7.193180153435148E-008
   31.3713750000000         7.323199939574462E-008
   31.4844250000000         7.454997925736129E-008
   31.5974750000000         7.588587731042830E-008
   31.7105250000000         7.723984204560237E-008
   31.8235750000000         7.861203243658226E-008
   31.9366250000000         8.000261557257376E-008
   32.0496750000000         8.141176377691039E-008
   32.1627250000000         8.283965144009443E-008
   32.2757750000000         8.428645169983591E-008
   32.3888250000000         8.575233316815310E-008
   32.5018750000000         8.723745685956967E-008
   32.6149250000000         8.874197350124508E-008
   32.7279750000000         9.026602135595869E-008
   32.8410250000000         9.180972465386426E-008
   32.9540750000000         9.337319277622752E-008
   33.0671250000000         9.495652017055572E-008
   33.1801750000000         9.655978705394108E-008
   33.2932250000000         9.818306084794598E-008
   33.4062750000000         9.982639831258532E-008
   33.5193250000000         1.014898482267855E-007
   33.6323750000000         1.031734545770129E-007
   33.7454250000000         1.048772600197286E-007
   33.8584750000000         1.066013095084401E-007
   33.9715250000000         1.083456539016556E-007
   34.0845750000000         1.101103533581504E-007
   34.1976250000000         1.118954804256872E-007
   34.3106750000000         1.137011226015420E-007
   34.4237250000000         1.155273843196741E-007
   34.5367750000000         1.173743882346682E-007
   34.6498250000000         1.192422757346306E-007
   34.7628750000000         1.211312066982295E-007
   34.8759250000000         1.230413584948034E-007
   34.9889750000000         1.249729242619103E-007
   35.1020250000000         1.269261105753323E-007
   35.2150750000000         1.289011345894792E-007
   35.3281250000000         1.308982208053443E-007
   35.4411750000000         1.329175975961202E-007
   35.5542250000000         1.349594936788008E-007
   35.6672750000000         1.370241346724949E-007
   35.7803250000000         1.391117399037020E-007
   35.8933750000000         1.412225196103110E-007
   36.0064250000000         1.433566726560423E-007
   36.1194750000000         1.455143848828566E-007
   36.2325250000000         1.476958281374769E-007
   36.3455750000000         1.499011600644760E-007
   36.4586250000000         1.521305246027975E-007
   36.5716750000000         1.543840532218055E-007
   36.6847250000000         1.566618667856436E-007
   36.7977750000000         1.589640780260706E-007
   36.9108250000000         1.612907944080989E-007
   37.0238750000000         1.636421213522770E-007
   37.1369250000000         1.660181656148304E-007
   37.2499750000000         1.684190386686356E-007
   37.3630250000000         1.708448599436794E-007
   37.4760750000000         1.732957597888124E-007
   37.5891250000000         1.757718819604649E-007
   37.7021750000000         1.782733856182356E-007
   37.8152250000000         1.808004466266642E-007
   37.9282750000000         1.833532581677489E-007
   38.0413250000000         1.859320306156048E-007
   38.1543750000000         1.885369906573006E-007
   38.2674250000000         1.911683797228572E-007
   38.3804750000000         1.938264517447629E-007
   38.4935250000000         1.965114703822121E-007
   38.6065750000000         1.992237057672839E-007
   38.7196250000000         2.019634310246644E-007
   38.8326750000000         2.047309185823379E-007
   38.9457250000000         2.075264365203359E-007
   39.0587750000000         2.103502450851629E-007
   39.1718250000000         2.132025935602015E-007
   39.2848750000000         2.160837175884740E-007
   39.3979250000000         2.189938370922793E-007
   39.5109750000000         2.219331548924239E-007
   39.6240250000000         2.249018561045269E-007
   39.7370750000000         2.279001083410048E-007
   39.8501250000000         2.309280626988008E-007
   39.9631750000000         2.339858555501564E-007
   40.0762250000000         2.370736110286320E-007
   40.1892750000000         2.401914441289040E-007
   40.3023250000000         2.433394643026657E-007
   40.4153750000000         2.465177794093661E-007
   40.5284250000000         2.497264998412510E-007
   40.6414750000000         2.529657426397462E-007
   40.7545250000000         2.562356354737767E-007
   40.8675750000000         2.595363202781843E-007
   40.9806250000000         2.628679564135307E-007
   41.0936750000000         2.662307231834386E-007
   41.2067250000000         2.696248216442990E-007
   41.3197750000000         2.730504755832881E-007
   41.4328250000000         2.765079316849827E-007
   41.5458750000000         2.799974587959136E-007
   41.6589250000000         2.835193463700395E-007
   41.7719750000000         2.870739021622556E-007
   41.8850250000000         2.906614492521771E-007
   41.9980750000000         2.942823225390679E-007
   42.1111250000000         2.979368648547491E-007
   42.2241750000000         3.016254228682692E-007
   42.3372250000000         3.053483429517445E-007
   42.4502750000000         3.091059672031627E-007
   42.5633250000000         3.128986297578451E-007
   42.6763750000000         3.167266536488448E-007
   42.7894250000000         3.205903482094403E-007
   42.9024750000000         3.244900072405582E-007
   43.0155250000000         3.284259079699780E-007
   43.1285750000000         3.323983108693511E-007
   43.2416250000000         3.364074602709653E-007
   43.3546750000000         3.404535858422358E-007
   43.4677250000000         3.445369047645079E-007
   43.5807750000000         3.486576245173605E-007
   43.6938250000000         3.528159461871905E-007
   43.8068750000000         3.570120680762486E-007
   43.9199250000000         3.612461894889383E-007
   44.0329750000000         3.655185144705800E-007
   44.1460250000000         3.698292553502965E-007
   44.2590750000000         3.741786359087956E-007
   44.3721250000000         3.785668939704851E-007
   44.4851750000000         3.829942833900034E-007
   44.5982250000000         3.874610752114915E-007
   44.7112750000000         3.919675580110084E-007
   44.8243250000000         3.965140373722416E-007
   44.9373750000000         4.011008344617403E-007
   45.0504250000000         4.057282837802683E-007
   45.1634750000000         4.103967301864734E-007
   45.2765250000000         4.151065252518683E-007
   45.3895750000000         4.198580231111532E-007
   45.5026250000000         4.246515759845566E-007
   45.6156750000000         4.294875295146133E-007
   45.7287250000000         4.343662181227285E-007
   45.8417750000000         4.392879605608160E-007
   45.9548250000000         4.442530558470698E-007
   46.0678750000000         4.492617797739124E-007
   46.1809250000000         4.543143820928482E-007
   46.2939750000000         4.594110845494229E-007
   46.4070250000000         4.645520798619983E-007
   46.5200750000000         4.697375317070104E-007
   46.6331250000000         4.749675757597499E-007
   46.7461750000000         4.802423218029823E-007
   46.8592250000000         4.855618568747840E-007
   46.9722750000000         4.909262494108879E-007
   47.0853250000000         4.963355542592323E-007
   47.1983750000000         5.017898184906363E-007
   47.3114250000000         5.072890878388236E-007
   47.4244750000000         5.128334135888920E-007
   47.5375250000000         5.184228597537747E-007
   47.6505750000000         5.240575103118739E-007
   47.7636250000000         5.297374762832160E-007
   47.8766750000000         5.354629024095746E-007
   47.9897250000000         5.412339732123005E-007
   48.1027750000000         5.470509181951574E-007
   48.2158250000000         5.529140159554207E-007
   48.3288750000000         5.588235969597530E-007
   48.4419250000000         5.647800448497606E-007
   48.5549750000000         5.707837960381307E-007
   48.6680250000000         5.768353374905972E-007
   48.7810750000000         5.829352025926329E-007
   48.8941250000000         5.890839650649729E-007
   49.0071750000000         5.952822309345935E-007
   49.1202250000000         6.015306286183921E-007
   49.2332750000000         6.078297973217587E-007
   49.3463250000000         6.141803739532811E-007
   49.4593750000000         6.205829788606800E-007
   49.5724250000000         6.270382007850168E-007
   49.6854750000000         6.335465815138172E-007
   49.7985250000000         6.401086007171663E-007
   49.9115750000000         6.467246615953673E-007
   50.0246250000000         6.533950779730321E-007
   50.1376750000000         6.601200634335913E-007
   50.2507250000000         6.668997232114247E-007
   50.3637750000000         6.737340493851504E-007
   50.4768250000000         6.806229199878825E-007
   50.5898750000000         6.875661025320818E-007
   50.7029250000000         6.945632622017363E-007
   50.8159750000000         7.016139750272028E-007
   50.9290250000000         7.087177459856353E-007
   51.0420750000000         7.158740319673052E-007
   51.1551250000000         7.230822691065153E-007
   51.2681750000000         7.303419039603678E-007
   51.3812250000000         7.376524276519335E-007
   51.4942750000000         7.450134119562823E-007
   51.6073250000000         7.524245460812566E-007
   51.7203750000000         7.598856726649036E-007
   51.8334250000000         7.673968215433774E-007
   51.9464750000000         7.749582395818453E-007
   52.0595250000000         7.825704149468160E-007
   52.1725750000000         7.902340942510149E-007
   52.2856250000000         7.979502910593262E-007
   52.3986750000000         8.057202845288059E-007
   52.5117250000000         8.135456071712636E-007
   52.6247750000000         8.214280210796752E-007
   52.7378250000000         8.293694823651467E-007
   52.8508750000000         8.373720940407025E-007
   52.9639250000000         8.454380480925824E-007
   53.0769750000000         8.535695579576779E-007
   53.1900250000000         8.617687831893005E-007
   53.3030750000000         8.700377485915383E-007
   53.4161250000000         8.783782605589391E-007
   53.5291750000000         8.867918237492261E-007
   53.6422250000000         8.952795614997423E-007
   53.7552750000000         9.038421436738922E-007
   53.8683250000000         9.124797255255107E-007
   53.9813750000000         9.211919012176392E-007
   54.0944250000000         9.299776753182457E-007
   54.2074750000000         9.388354551903611E-007
   54.3205250000000         9.477630666520903E-007
   54.4335750000000         9.567577945368854E-007
   54.5466250000000         9.658164488832824E-007
   54.6596750000000         9.749354566168474E-007
   54.7727250000000         9.841109774792190E-007
   54.8857750000000         9.933390418117953E-007
   54.9988250000000         1.002615706801056E-006
   55.1118750000000         1.011937226629287E-006
   55.2249250000000         1.021300231087668E-006
   55.3379750000000         1.030701906267710E-006
   55.4510250000000         1.040140170396657E-006
   55.5640750000000         1.049613837338282E-006
   55.6771250000000         1.059122760146608E-006
   55.7901750000000         1.068667947191486E-006
   55.9032250000000         1.078251643774445E-006
   56.0162750000000         1.087877372893762E-006
   56.1293250000000         1.097549929876008E-006
   56.2423750000000         1.107275327015135E-006
   56.3554250000000         1.117060685867469E-006
   56.4684750000000         1.126914076876909E-006
   56.5815250000000         1.136844307924949E-006
   56.6945750000000         1.146860665594678E-006
   56.8076250000000         1.156972615113965E-006
   56.9206750000000         1.167189467038218E-006
   57.0337250000000         1.177520020783800E-006
   57.1467750000000         1.187972196780599E-006
   57.2598250000000         1.198552670553548E-006
   57.3728750000000         1.209266522906456E-006
   57.4859250000000         1.220116921142399E-006
   57.5989750000000         1.231104846075836E-006
   57.7120250000000         1.242228879171425E-006
   57.8250750000000         1.253485062946393E-006
   57.9381250000000         1.264866846003335E-006
   58.0511750000000         1.276365121678866E-006
   58.1642250000000         1.287968366627941E-006
   58.2772750000000         1.299662882023199E-006
   58.3903250000000         1.311433136671602E-006
   58.5033750000000         1.323262207141363E-006
   58.6164250000000         1.335132306140320E-006
   58.7294750000000         1.347025386173439E-006
   58.8425250000000         1.358923801755850E-006
   58.9555750000000         1.370811009938373E-006
   59.0686250000000         1.382672285856197E-006
   59.1816750000000         1.394495427717937E-006
   59.2947250000000         1.406271424039020E-006
   59.4077750000000         1.417995055347548E-006
   59.5208250000000         1.429665402908929E-006
   59.6338750000000         1.441286238394974E-006
   59.7469250000000         1.452866270988441E-006
   59.8599750000000         1.464419231911921E-006
   59.9730250000000         1.475963780907873E-006
   60.0860750000000         1.487523224721201E-006
   60.1991250000000         1.499125043771645E-006
   60.3121750000000         1.510800230058463E-006
   60.4252250000000         1.522582446479014E-006
   60.5382750000000         1.534507025042236E-006
   60.6513250000000         1.546609828657622E-006
   60.7643750000000         1.558926007865364E-006
   60.8774250000000         1.571488690050205E-006
   60.9904750000000         1.584327643758331E-006
   61.1035250000000         1.597467964651478E-006
   61.2165750000000         1.610928832232607E-006
   61.3296250000000         1.624722387260857E-006
   61.4426750000000         1.638852779040608E-006
   61.5557250000000         1.653315428975616E-006
   61.6687750000000         1.668096552387616E-006
   61.7818250000000         1.683172974124963E-006
   61.8948750000000         1.698512265543942E-006
   62.0079250000000         1.714073220807125E-006
   62.1209750000000         1.729806679612698E-006
   62.2340250000000         1.745656691712046E-006
   62.3470750000000         1.761562006043270E-006
   62.4601250000000         1.777457854676337E-006
   62.5731750000000         1.793277989410828E-006
   62.6862250000000         1.808956916926668E-006
   62.7992750000000         1.824432267951873E-006
   62.9123250000000         1.839647226642028E-006
   63.0253750000000         1.854552939412501E-006
   63.1384250000000         1.869110817602590E-006
   63.2514750000000         1.883294646401758E-006
   63.3645250000000         1.897092413145654E-006
   63.4775750000000         1.910507772113913E-006
   63.5906250000000         1.923561069832845E-006
   63.7036750000000         1.936289865033346E-006
   63.8167250000000         1.948748890293899E-006
   63.9297750000000         1.961009418092468E-006
   64.0428250000000         1.973158011803024E-006
   64.1558750000000         1.985294661954069E-006
   64.2689250000000         1.997530329006581E-006
   64.3819750000000         2.009983935471121E-006
   64.4950250000000         2.022778871812352E-006
   64.6080750000000         2.036039101342225E-006
   64.7211250000000         2.049884968514218E-006
   64.8341750000000         2.064428832094821E-006
   64.9472250000000         2.079770658702503E-006
   65.0602750000000         2.095993722686944E-006
   65.1733250000000         2.113160564599824E-006
   65.2863750000000         2.131309362106174E-006
   65.3994250000000         2.150450863908023E-006
   65.5124750000000         2.170566028719005E-006