 -0.847875000000000        -1.413221867027686E-023
 -0.734825000000000        -1.299748852330412E-023
 -0.621775000000000        -1.009894457483217E-023
 -0.508725000000000         8.200577197582354E-025
 -0.395675000000000         5.413343203496445E-023
 -0.282625000000000         2.940616057286593E-022
 -0.169575000000000         1.224108533805424E-021
 -5.652500000000005E-002    4.347343064609256E-021
  5.652499999999994E-002    1.355873647560266E-020
  0.169575000000000         3.775642937903095E-020
  0.282625000000000         9.495168827081770E-020
  0.395675000000000         2.179119380235029E-019
  0.508725000000000         4.602570848782294E-019
  0.621775000000000         9.015292076840737E-019
  0.734825000000000         1.648775641472354E-018
  0.847875000000000         2.831426193141929E-018
  0.960925000000000         4.588225419614520E-018
   1.07397500000000         7.040921238667687E-018
   1.18702500000000         1.025867918079657E-017
   1.30007500000000         1.420842926465500E-017
   1.41312500000000         1.869764467308351E-017
   1.52617500000000         2.331010907554811E-017
   1.63922500000000         2.733836021599240E-017
   1.75227500000000         2.972102450674187E-017
   1.86532500000000         2.898796829802182E-017
   1.97837500000000         2.321750492547145E-017
   2.09142500000000         1.001238558736148E-017
   2.20447500000000        -1.350601750701379E-017
   2.31752500000000        -5.068296299653521E-017
   2.43057500000000        -1.052950341632474E-016
   2.54362500000000        -1.814971463419893E-016
   2.65667500000000        -2.837579622941362E-016
   2.76972500000000        -4.167796126877573E-016
   2.88277500000000        -5.854167321171447E-016
   2.99582500000000        -7.945969650374927E-016
   3.10887500000000        -1.049232309374796E-015
   3.22192500000000        -1.354144467989810E-015
   3.33497500000000        -1.713992282885128E-015
   3.44802500000000        -2.133205359767704E-015
   3.56107500000000        -2.615918322059842E-015
   3.67412500000000        -3.165892531987400E-015
   3.78717500000000        -3.786449030573202E-015
   3.90022500000000        -4.480391216764978E-015
   4.01327500000000        -5.249902610195236E-015
   4.12632500000000        -6.096454142034430E-015
   4.23937500000000        -7.020675812835346E-015
   4.35242500000000        -8.022240927923062E-015
   4.46547500000000        -9.099743879480626E-015
   4.57852500000000        -1.025056526782651E-014
   4.69157500000000        -1.147077049174657E-014
   4.80462500000000        -1.275501914248357E-014
   4.91767500000000        -1.409650625447273E-014
   5.03072500000000        -1.548694585672513E-014
   5.14377500000000        -1.691660631991818E-014
   5.25682500000000        -1.837439952253466E-014
   5.36987500000000        -1.984802582685212E-014
   5.48292500000000        -2.132418874407217E-014
   5.59597500000000        -2.278885400801868E-014
   5.70902500000000        -2.422757062486965E-014
   5.82207500000000        -2.562583493373656E-014
   5.93512500000000        -2.696948666630196E-014
   6.04817500000000        -2.824514783685051E-014
   6.16122500000000        -2.944063704101019E-014
   6.27427500000000        -3.054540578790609E-014
   6.38732500000000        -3.155095112324214E-014
   6.50037500000000        -3.245118587755190E-014
   6.61342500000000        -3.324277201269690E-014
   6.72647500000000        -3.392538735966103E-014
   6.83952500000000        -3.450192193255341E-014
   6.95257500000000        -3.497858901249025E-014
   7.06562500000000        -3.536494627145053E-014
   7.17867500000000        -3.567381139559799E-014
   7.29172500000000        -3.592108494568407E-014
   7.40477500000000        -3.612545420128108E-014
   7.51782500000000        -3.630798806378989E-014
   7.63087500000000        -3.649165882365843E-014
   7.74392500000000        -3.670074466378914E-014
   7.85697500000000        -3.696017749834025E-014
   7.97002500000000        -3.729481740403983E-014
   8.08307500000000        -3.772872633254556E-014
   8.19612500000000        -3.828439828729915E-014
   8.30917500000000        -3.898204018940528E-014
   8.42222500000000        -3.983890540471106E-014
   8.53527500000000        -4.086870918443504E-014
   8.64832500000000        -4.208116514327106E-014
   8.76137500000000        -4.348167158473592E-014
   8.87442500000000        -4.507115799067873E-014
   8.98747500000000        -4.684610811385580E-014
   9.10052500000000        -4.879878203396862E-014
   9.21357500000000        -5.091760728778223E-014
   9.32662500000000        -5.318775372629212E-014
   9.43967500000000        -5.559185103926386E-014
   9.55272500000000        -5.811082560880441E-014
   9.66577500000000        -6.072482420265478E-014
   9.77882500000000        -6.341416479013872E-014
   9.89187500000000        -6.616029126797791E-014
   10.0049250000000        -6.894667342852410E-014
   10.1179750000000        -7.175960430885902E-014
   10.2310250000000        -7.458886394034908E-014
   10.3440750000000        -7.742820269128743E-014
   10.4571250000000        -8.027562285396051E-014
   10.5701750000000        -8.313346070162632E-014
   10.6832250000000        -8.600823966415914E-014
   10.7962750000000        -8.891029711547203E-014
   10.9093250000000        -9.185324444415687E-014
   11.0223750000000        -9.485323409586778E-014
   11.1354250000000        -9.792810632662523E-014
   11.2484750000000        -1.010964532082811E-013
   11.3615250000000        -1.043766229476511E-013
   11.4745750000000        -1.077857599890612E-013
   11.5876250000000        -1.113388868211089E-013
   11.7006750000000        -1.150481171220892E-013
   11.8137250000000        -1.189220029709474E-013
   11.9267750000000        -1.229651040601257E-013
   12.0398250000000        -1.271777506440551E-013
   12.1528750000000        -1.315560702243411E-013
   12.2659250000000        -1.360922446753428E-013
   12.3789750000000        -1.407750258064839E-013
   12.4920250000000        -1.455904567399375E-013
   12.6050750000000        -1.505228142319371E-013
   12.7181250000000        -1.555556864138985E-013
   12.8311750000000        -1.606731530399948E-013
   12.9442250000000        -1.658610219120002E-013
   13.0572750000000        -1.711080382052562E-013
   13.1703250000000        -1.764070291932787E-013
   13.2833750000000        -1.817558773846914E-013
   13.3964250000000        -1.871583092245899E-013
   13.5094750000000        -1.926244123092014E-013
   13.6225250000000        -1.981708826610257E-013
   13.7355750000000        -2.038209214123646E-013
   13.8486250000000        -2.096038194699692E-013
   13.9616750000000        -2.155542184383461E-013
   14.0747250000000        -2.217110701793226E-013
   14.1877750000000        -2.281163459647607E-013
   14.3008250000000        -2.348135437980784E-013
   14.4138750000000        -2.418460747045869E-013
   14.5269250000000        -2.492556060153716E-013
   14.6399750000000        -2.570804278391716E-013
   14.7530250000000        -2.653539535394758E-013
   14.8660750000000        -2.741034275314030E-013
   14.9791250000000        -2.833488882729613E-013
   15.0921750000000        -2.931024864317769E-013
   15.2052250000000        -3.033681567128372E-013
   15.3182750000000        -3.141416900517376E-013
   15.4313250000000        -3.254111953023213E-013
   15.5443750000000        -3.371579447183888E-013
   15.6574250000000        -3.493575218762016E-013
   15.7704750000000        -3.619812665488015E-013
   15.8835250000000        -3.749978881004185E-013
   15.9965750000000        -3.883751988169235E-013
   16.1096250000000        -4.020818510741894E-013
   16.2226750000000        -4.160890023192802E-013
   16.3357250000000        -4.303718135699108E-013
   16.4487750000000        -4.449106895572749E-013
   16.5618250000000        -4.596922155652293E-013
   16.6748750000000        -4.747097403196097E-013
   16.7879250000000        -4.899635535923944E-013
   16.9009750000000        -5.054606833103627E-013
   17.0140250000000        -5.212143049158857E-013
   17.1270750000000        -5.372428091041600E-013
   17.2401250000000        -5.535685897585745E-013
   17.3531750000000        -5.702166200355364E-013
   17.4662250000000        -5.872128857902481E-013
   17.5792750000000        -6.045827871484734E-013
   17.6923250000000        -6.223495962128095E-013
   17.8053750000000        -6.405330561191963E-013
   17.9184250000000        -6.591482180994622E-013
   18.0314750000000        -6.782045768084887E-013
   18.1445250000000        -6.977055594684452E-013
   18.2575750000000        -7.176484176837644E-013
   18.3706250000000        -7.380245324283141E-013
   18.4836750000000        -7.588201058008129E-013
   18.5967250000000        -7.800172394392730E-013
   18.7097750000000        -8.015953089873156E-013
   18.8228250000000        -8.235325868431557E-013
   18.9358750000000        -8.458080145722638E-013
   19.0489250000000        -8.684030168170495E-013
   19.1619750000000        -8.913032551016083E-013
   19.2750250000000        -9.145002133386621E-013
   19.3880750000000        -9.379925028366753E-013
   19.5011250000000        -9.617868095451518E-013
   19.6141750000000        -9.858983885901212E-013
   19.7272250000000        -1.010351083722440E-012
   19.8402750000000        -1.035176822373205E-012
   19.9533250000000        -1.060414609111266E-012
   20.0663750000000        -1.086109032396696E-012
   20.1794250000000        -1.112308372133105E-012
   20.2924750000000        -1.139062369053706E-012
   20.4055250000000        -1.166419788476352E-012
   20.5185750000000        -1.194425900750527E-012
   20.6316250000000        -1.223120007072197E-012
   20.7446750000000        -1.252533158411909E-012
   20.8577250000000        -1.282686189049582E-012
   20.9707750000000        -1.313588195522374E-012
   21.0838250000000        -1.345235557395272E-012
   21.1968750000000        -1.377611551594624E-012
   21.3099250000000        -1.410686636231951E-012
   21.4229750000000        -1.444419364038326E-012
   21.5360250000000        -1.478757944863616E-012
   21.6490750000000        -1.513642360050356E-012
   21.7621250000000        -1.549006949696676E-012
   21.8751750000000        -1.584783345990520E-012
   21.9882250000000        -1.620903623469155E-012
   22.1012750000000        -1.657303508869635E-012
   22.2143250000000        -1.693925490752804E-012
   22.3273750000000        -1.730721688699143E-012
   22.4404250000000        -1.767656321775049E-012
   22.5534750000000        -1.804707670730510E-012
   22.6665250000000        -1.841869425498074E-012
   22.7795750000000        -1.879151359913467E-012
   22.8926250000000        -1.916579276349801E-012
   23.0056750000000        -1.954194251614002E-012
   23.1187250000000        -1.992051186509932E-012
   23.2317750000000        -2.030216735393087E-012
   23.3448250000000        -2.068766731677282E-012
   23.4578750000000        -2.107783196658271E-012
   23.5709250000000        -2.147351088127141E-012
   23.6839750000000        -2.187554940926530E-012
   23.7970250000000        -2.228475553329286E-012
   23.9100750000000        -2.270186876387455E-012
   24.0231250000000        -2.312753231735475E-012
   24.1361750000000        -2.356227014954794E-012
   24.2492250000000        -2.400646963174820E-012
   24.3622750000000        -2.446037079909998E-012
   24.4753250000000        -2.492406242327521E-012
   24.5883750000000        -2.539748533734452E-012
   24.7014250000000        -2.588044243323949E-012
   24.8144750000000        -2.637261496953430E-012
   24.9275250000000        -2.687358434006306E-012
   25.0405750000000        -2.738285805566862E-012
   25.1536250000000        -2.789989864134742E-012
   25.2666750000000        -2.842415411225328E-012
   25.3797250000000        -2.895508838146142E-012
   25.4927750000000        -2.949221005106993E-012
   25.6058250000000        -3.003509842490554E-012
   25.7188750000000        -3.058342524481182E-012
   25.8319250000000        -3.113697134903344E-012
   25.9449750000000        -3.169563752817214E-012
   26.0580250000000        -3.225944907885058E-012
   26.1710750000000        -3.282855410621610E-012
   26.2841250000000        -3.340321580844128E-012
   26.3971750000000        -3.398379927956962E-012
   26.5102250000000        -3.457075394557476E-012
   26.6232750000000        -3.516459220395326E-012
   26.7363250000000        -3.576586593076136E-012
   26.8493750000000        -3.637514189691602E-012
   26.9624250000000        -3.699297750977064E-012
   27.0754750000000        -3.761989806220432E-012
   27.1885250000000        -3.825637658102102E-012
   27.3015750000000        -3.890281727743938E-012
   27.4146250000000        -3.955954308734920E-012
   27.5276750000000        -4.022678805962468E-012
   27.6407250000000        -4.090469451839671E-012
   27.7537750000000        -4.159331508251519E-012
   27.8668250000000        -4.229261911897055E-012
   27.9798750000000        -4.300250322908790E-012
   28.0929250000000        -4.372280488350987E-012
   28.2059750000000        -4.445331855636625E-012
   28.3190250000000        -4.519381324871983E-012
   28.4320750000000        -4.594405064812816E-012
   28.5451250000000        -4.670380280112164E-012
   28.6581750000000        -4.747286860086135E-012
   28.7712250000000        -4.825108802756226E-012
   28.8842750000000        -4.903835386969379E-012
   28.9973250000000        -4.983462016403223E-012
   29.1103750000000        -5.063990696314904E-012
   29.2234250000000        -5.145430162327242E-012
   29.3364750000000        -5.227795636518677E-012
   29.4495250000000        -5.311108244236738E-012
   29.5625750000000        -5.395394143358073E-012
   29.6756250000000        -5.480683389529485E-012
   29.7886750000000        -5.567008633170410E-012
   29.9017250000000        -5.654403697906540E-012
   30.0147750000000        -5.742902134775293E-012
   30.1278250000000        -5.832535815197357E-012
   30.2408750000000        -5.923333644779338E-012
   30.3539250000000        -6.015320464701376E-012
   30.4669750000000        -6.108516190629269E-012
   30.5800250000000        -6.202935237753919E-012
   30.6930750000000        -6.298586257741858E-012
   30.8061250000000        -6.395472182015091E-012
   30.9191750000000        -6.493590599143768E-012
   31.0322250000000        -6.592934395822025E-012
   31.1452750000000        -6.693492668244491E-012
   31.2583250000000        -6.795251817021718E-012
   31.3713750000000        -6.898196788519765E-012
   31.4844250000000        -7.002312389426849E-012
   31.5974750000000        -7.107584599332939E-012
   31.7105250000000        -7.214001828454911E-012
   31.8235750000000        -7.321556057230743E-012
   31.9366250000000        -7.430243780273609E-012
   32.0496750000000        -7.540066759206299E-012
   32.1627250000000        -7.651032518532803E-012
   32.2757750000000        -7.763154571656110E-012
   32.3888250000000        -7.876452388713515E-012
   32.5018750000000        -7.990951102326713E-012
   32.6149250000000        -8.106680970747934E-012
   32.7279750000000        -8.223676629528120E-012
   32.8410250000000        -8.341976173423618E-012
   32.9540750000000        -8.461620097001073E-012
   33.0671250000000        -8.582650141140573E-012
   33.1801750000000        -8.705108097928526E-012
   33.2932250000000        -8.829034618445369E-012
   33.4062750000000        -8.954468053554496E-012
   33.5193250000000        -9.081443385739951E-012
   33.6323750000000        -9.209991278031388E-012
   33.7454250000000        -9.340137269013435E-012
   33.8584750000000        -9.471901143785839E-012
   33.9715250000000        -9.605296507252017E-012
   34.0845750000000        -9.740330553159932E-012
   34.1976250000000        -9.877004078795017E-012
   34.3106750000000        -1.001531168311353E-011
   34.4237250000000        -1.015524218892159E-011
   34.5367750000000        -1.029677925379129E-011
   34.6498250000000        -1.043990214834680E-011
   34.7628750000000        -1.058458667365753E-011
   34.8759250000000        -1.073080618270530E-011
   34.9889750000000        -1.087853266611748E-011
   35.1020250000000        -1.102773785283623E-011
   35.2150750000000        -1.117839429968478E-011
   35.3281250000000        -1.133047639859273E-011
   35.4411750000000        -1.148396129366814E-011
   35.5542250000000        -1.163882964869331E-011
   35.6672750000000        -1.179506625125363E-011
   35.7803250000000        -1.195266042411752E-011
   35.8933750000000        -1.211160624509966E-011
   36.0064250000000        -1.227190256901797E-011
   36.1194750000000        -1.243355284889388E-011
   36.2325250000000        -1.259656480852839E-011
   36.3455750000000        -1.276094993522722E-011
   36.4586250000000        -1.292672287601694E-011
   36.5716750000000        -1.309390075929045E-011
   36.6847250000000        -1.326250245969115E-011
   36.7977750000000        -1.343254785508234E-011
   36.9108250000000        -1.360405713988933E-011
   37.0238750000000        -1.377705017510662E-011
   37.1369250000000        -1.395154595160099E-011
   37.2499750000000        -1.412756217661006E-011
   37.3630250000000        -1.430511498697782E-011
   37.4760750000000        -1.448421883530922E-011
   37.5891250000000        -1.466488650616157E-011
   37.7021750000000        -1.484712930212043E-011
   37.8152250000000        -1.503095735809245E-011
   37.9282750000000        -1.521638009060758E-011
   38.0413250000000        -1.540340673633131E-011
   38.1543750000000        -1.559204696713463E-011
   38.2674250000000        -1.578231152729270E-011
   38.3804750000000        -1.597421288661771E-011
   38.4935250000000        -1.616776582653484E-011
   38.6065750000000        -1.636298796626054E-011
   38.7196250000000        -1.655990015588930E-011
   38.8326750000000        -1.675852672032593E-011
   38.9457250000000        -1.695889553324760E-011
   39.0587750000000        -1.716103789665162E-011
   39.1718250000000        -1.736498820625234E-011
   39.2848750000000        -1.757078344003690E-011
   39.3979250000000        -1.777846245989422E-011
   39.5109750000000        -1.798806516243997E-011
   39.6240250000000        -1.819963152031979E-011
   39.7370750000000        -1.841320056865343E-011
   39.8501250000000        -1.862880937815382E-011
   39.9631750000000        -1.884649208907836E-011
   40.0762250000000        -1.906627905461180E-011
   40.1892750000000        -1.928819615850193E-011
   40.3023250000000        -1.951226434441660E-011
   40.4153750000000        -1.973849941436701E-011
   40.5284250000000        -1.996691209839514E-011
   40.6414750000000        -2.019750841343131E-011
   40.7545250000000        -2.043029030439858E-011
   40.8675750000000        -2.066525654540958E-011
   40.9806250000000        -2.090240384525096E-011
   41.0936750000000        -2.114172810676995E-011
   41.2067250000000        -2.138322575968512E-011
   41.3197750000000        -2.162689510845518E-011
   41.4328250000000        -2.187273757042700E-011
   41.5458750000000        -2.212075876117065E-011
   41.6589250000000        -2.237096931198871E-011
   41.7719750000000        -2.262338535819355E-011
   41.8850250000000        -2.287802863927202E-011
   41.9980750000000        -2.313492616751657E-011
   42.1111250000000        -2.339410943805921E-011
   42.2241750000000        -2.365561319739678E-011
   42.3372250000000        -2.391947379905307E-011
   42.4502750000000        -2.418572719354742E-011
   42.5633250000000        -2.445440663270938E-011
   42.6763750000000        -2.472554021547726E-011
   42.7894250000000        -2.499914838583662E-011
   42.9024750000000        -2.527524154485532E-011
   43.0155250000000        -2.555381791098449E-011
   43.1285750000000        -2.583486180753522E-011
   43.2416250000000        -2.611834250745511E-011
   43.3546750000000        -2.640421382955344E-011
   43.4677250000000        -2.669241453125963E-011
   43.5807750000000        -2.698286964822823E-011
   43.6938250000000        -2.727549281874816E-011
   43.8068750000000        -2.757018957924338E-011
   43.9199250000000        -2.786686160225505E-011
   44.0329750000000        -2.816541177720862E-011
   44.1460250000000        -2.846574997331175E-011
   44.2590750000000        -2.876779927431770E-011
   44.3721250000000        -2.907150243643219E-011
   44.4851750000000        -2.937682825317216E-011
   44.5982250000000        -2.968377749831857E-011
   44.7112750000000        -2.999238811130388E-011
   44.8243250000000        -3.030273925938241E-011
   44.9373750000000        -3.061495394607884E-011
   45.0504250000000        -3.092919984334072E-011
   45.1634750000000        -3.124568812443460E-011
   45.2765250000000        -3.156467009461607E-011
   45.3895750000000        -3.188643152891870E-011
   45.5026250000000        -3.221128471564321E-011
   45.6156750000000        -3.253955832075399E-011
   45.7287250000000        -3.287158529180796E-011
   45.8417750000000        -3.320768915310399E-011
   45.9548250000000        -3.354816913747170E-011
   46.0678750000000        -3.389328472184053E-011
   46.1809250000000        -3.424324020265629E-011
   46.2939750000000        -3.459817002198336E-011
   46.4070250000000        -3.495812559138203E-011
   46.5200750000000        -3.532306437504170E-011
   46.6331250000000        -3.569284196570328E-011
   46.7461750000000        -3.606720782155851E-011
   46.8592250000000        -3.644580523878293E-011
   46.9722750000000        -3.682817602309093E-011
   47.0853250000000        -3.721377009757702E-011
   47.1983750000000        -3.760196017653462E-011
   47.3114250000000        -3.799206132897369E-011
   47.4244750000000        -3.838335508655911E-011
   47.5375250000000        -3.877511748084502E-011
   47.6505750000000        -3.916665016568155E-011
   47.7636250000000        -3.955731355197956E-011
   47.8766750000000        -3.994656070632307E-011
   47.9897250000000        -4.033397059193356E-011
   48.1027750000000        -4.071927912036479E-011
   48.2158250000000        -4.110240645566592E-011
   48.3288750000000        -4.148347899347807E-011
   48.4419250000000        -4.186284455269753E-011
   48.5549750000000        -4.224107946669106E-011
   48.6680250000000        -4.261898648355587E-011
   48.7810750000000        -4.299758271449910E-011
   48.8941250000000        -4.337807721726511E-011
   49.0071750000000        -4.376183820369534E-011
   49.1202250000000        -4.415035036123385E-011
   49.2332750000000        -4.454516320105727E-011
   49.3463250000000        -4.494783185726690E-011
   49.4593750000000        -4.535985220845705E-011
   49.5724250000000        -4.578259257563805E-011
   49.6854750000000        -4.621722466944763E-011
   49.7985250000000        -4.666465665338941E-011
   49.9115750000000        -4.712547139922992E-011
   50.0246250000000        -4.759987302526424E-011
   50.1376750000000        -4.808764475468522E-011
   50.2507250000000        -4.858812086459810E-011
   50.3637750000000        -4.910017516113410E-011
   50.4768250000000        -4.962222790197347E-011
   50.5898750000000        -5.015227246298835E-011
   50.7029250000000        -5.068792232764496E-011
   50.8159750000000        -5.122647812636133E-011
   50.9290250000000        -5.176501361840235E-011
   51.0420750000000        -5.230047856366355E-011
   51.1551250000000        -5.282981560806627E-011
   51.2681750000000        -5.335008738888620E-011
   51.3812250000000        -5.385860940027765E-011
   51.4942750000000        -5.435308350401503E-011
   51.6073250000000        -5.483172653625020E-011
   51.7203750000000        -5.529338821501048E-011
   51.8334250000000        -5.573765253646162E-011
   51.9464750000000        -5.616491707325628E-011
   52.0595250000000        -5.657644506231434E-011
   52.1725750000000        -5.697438590292680E-011
   52.2856250000000        -5.736176065665591E-011
   52.3986750000000        -5.774241035260425E-011
   52.5117250000000        -5.812090625239146E-011
   52.6247750000000        -5.850242277445676E-011
   52.7378250000000        -5.889257538111453E-011
   52.8508750000000        -5.929722736033032E-011
   52.9639250000000        -5.972227104034911E-011
   53.0769750000000        -6.017339046571963E-011
   53.1900250000000        -6.065581389016249E-011
   53.3030750000000        -6.117406543709881E-011
   53.4161250000000        -6.173172613837008E-011
   53.5291750000000        -6.233121483879033E-011
   53.6422250000000        -6.297359951091132E-011
   53.7552750000000        -6.365844903199213E-011
   53.8683250000000        -6.438373457833145E-011
   53.9813750000000        -6.514578843554704E-011
   54.0944250000000        -6.593932628123958E-011
   54.2074750000000        -6.675753679403402E-011
   54.3205250000000        -6.759224002152745E-011
   54.4335750000000        -6.843411325917925E-011
   54.5466250000000        -6.927298026061340E-011
   54.6596750000000        -7.009815680878437E-011
   54.7727250000000        -7.089884281970707E-011
   54.8857750000000        -7.166454856072827E-011
   54.9988250000000        -7.238554026783951E-011
   55.1118750000000        -7.305328860132293E-011
   55.2249250000000        -7.366090205303117E-011
   55.3379750000000        -7.420352674005729E-011
   55.4510250000000        -7.467869404270209E-011
   55.5640750000000        -7.508659826335664E-011
   55.6771250000000        -7.543028810624653E-011
   55.7901750000000        -7.571575800607649E-011
   55.9032250000000        -7.595192838367367E-011
   56.0162750000000        -7.615050758205117E-011
   56.1293250000000        -7.632573245935489E-011
   56.2423750000000        -7.649398923026504E-011
   56.3554250000000        -7.667332107836818E-011
   56.4684750000000        -7.688283399661080E-011
   56.5815250000000        -7.714201721859716E-011
   56.6945750000000        -7.746999911562162E-011
   56.8076250000000        -7.788476346774760E-011
   56.9206750000000        -7.840235435359346E-011
   57.0337250000000        -7.903610032726993E-011
   57.1467750000000        -7.979588989702218E-011
   57.2598250000000        -8.068753056762737E-011
   57.3728750000000        -8.171222263862732E-011
   57.4859250000000        -8.286617659383307E-011
   57.5989750000000        -8.414039927294234E-011
   57.7120250000000        -8.552066914751710E-011
   57.8250750000000        -8.698771499503394E-011
   57.9381250000000        -8.851760531088466E-011
   58.0511750000000        -9.008234806390433E-011
   58.1642250000000        -9.165069214596372E-011
   58.2772750000000        -9.318911345404429E-011
   58.3903250000000        -9.466296017977291E-011
   58.5033750000000        -9.603772393491651E-011
   58.6164250000000        -9.728039621231226E-011
   58.7294750000000        -9.836086359806903E-011
   58.8425250000000        -9.925329046371176E-011
   58.9555750000000        -9.993743486746348E-011
   59.0686250000000        -1.003998422438689E-010
   59.1816750000000        -1.006348623870639E-010
   59.2947250000000        -1.006454383123518E-010
   59.4077750000000        -1.004436207750424E-010
   59.5208250000000        -1.000507696177062E-010
   59.6338750000000        -9.949741237050292E-011
   59.7469250000000        -9.882274158625047E-011
   59.8599750000000        -9.807374486333414E-011
   59.9730250000000        -9.730397500510530E-011
   60.0860750000000        -9.657198189879484E-011
   60.1991250000000        -9.593944191675193E-011
   60.3121750000000        -9.546903447466345E-011
   60.4252250000000        -9.522212824744244E-011
   60.5382750000000        -9.525635089794864E-011
   60.6513250000000        -9.562312553734232E-011
   60.7643750000000        -9.636526403015299E-011
   60.8774250000000        -9.751471117834978E-011
   60.9904750000000        -9.909053459651788E-011
   61.1035250000000        -1.010972523808524E-010
   61.2165750000000        -1.035235843362883E-010
   61.3296250000000        -1.063417027522714E-010
   61.4426750000000        -1.095070453336528E-010
   61.5557250000000        -1.129587365359290E-010
   61.6687750000000        -1.166206442911859E-010
   61.7818250000000        -1.204030776898745E-010
   61.8948750000000        -1.242051081790343E-010
   62.0079250000000        -1.279174728916347E-010
   62.1209750000000        -1.314259948217530E-010
   62.2340250000000        -1.346154313518921E-010
   62.3470750000000        -1.373736412203249E-010
   62.4601250000000        -1.395959410623051E-010
   62.5731750000000        -1.411895071056146E-010
   62.6862250000000        -1.420776662673846E-010
   62.7992750000000        -1.422039142474942E-010
   62.9123250000000        -1.415354970237686E-010
   63.0253750000000        -1.400663965807110E-010
   63.1384250000000        -1.378195721466550E-010
   63.2514750000000        -1.348483244503726E-010
   63.3645250000000        -1.312366726035307E-010
   63.4775750000000        -1.270986605108757E-010
   63.5906250000000        -1.225765417094229E-010
   63.7036750000000        -1.178378274852770E-010
   63.8167250000000        -1.130712218261818E-010
   63.9297750000000        -1.084815072532573E-010
   64.0428250000000        -1.042834865376676E-010
   64.1558750000000        -1.006951251861849E-010
   64.2689250000000        -9.793007724627654E-011
   64.3819750000000        -9.618981075829430E-011
   64.4950250000000        -9.565557776755532E-011
   64.6080750000000        -9.648049595658432E-011
   64.7211250000000        -9.878202344273323E-011
   64.8341750000000        -1.026351141664492E-010
   64.9472250000000        -1.080663378028468E-010
   65.0602750000000        -1.150492348406739E-010
   65.1733250000000        -1.235011541678396E-010
   65.2863750000000        -1.332817873499958E-010
   65.3994250000000        -1.441935712269610E-010
   65.5124750000000        -1.559840793449449E-010