 -0.847875000000000        -1.220264775859949E-020
 -0.734825000000000         6.160293896493817E-019
 -0.621775000000000         5.838459444107567E-018
 -0.508725000000000         3.252189006343334E-017
 -0.395675000000000         1.404438882278664E-016
 -0.282625000000000         5.062033396446565E-016
 -0.169575000000000         1.568161556432574E-015
 -5.652500000000005E-002    4.249223671490472E-015
  5.652499999999994E-002    1.021791019245589E-014
  0.169575000000000         2.210825056816095E-014
  0.282625000000000         4.362735600542281E-014
  0.395675000000000         7.954462727128908E-014
  0.508725000000000         1.356230490220582E-013
  0.621775000000000         2.185599143541294E-013
  0.734825000000000         3.359631781679835E-013
  0.847875000000000         4.963515793688599E-013
  0.960925000000000         7.091338174326269E-013
   1.07397500000000         9.845467045426314E-013
   1.18702500000000         1.333529949984233E-012
   1.30007500000000         1.767517240348668E-012
   1.41312500000000         2.298164820316308E-012
   1.52617500000000         2.936996125556195E-012
   1.63922500000000         3.694960189368019E-012
   1.75227500000000         4.581972264091868E-012
   1.86532500000000         5.606397059127774E-012
   1.97837500000000         6.774467829757305E-012
   2.09142500000000         8.089726536202590E-012
   2.20447500000000         9.552475999735473E-012
   2.31752500000000         1.115925780733519E-011
   2.43057500000000         1.290241943875146E-011
   2.54362500000000         1.476974057153728E-011
   2.65667500000000         1.674416441906813E-011
   2.76972500000000         1.880371759802343E-011
   2.88277500000000         2.092152673492522E-011
   2.99582500000000         2.306605589983936E-011
   3.10887500000000         2.520148283592808E-011
   3.22192500000000         2.728822702706427E-011
   3.33497500000000         2.928366035584548E-011
   3.44802500000000         3.114304296877996E-011
   3.56107500000000         3.282042299110515E-011
   3.67412500000000         3.426969570439944E-011
   3.78717500000000         3.544574257587121E-011
   3.90022500000000         3.630561721360388E-011
   4.01327500000000         3.680955522867978E-011
   4.12632500000000         3.692178663106793E-011
   4.23937500000000         3.661155544522343E-011
   4.35242500000000         3.585375336891716E-011
   4.46547500000000         3.462933194278802E-011
   4.57852500000000         3.292537682586248E-011
   4.69157500000000         3.073499336757601E-011
   4.80462500000000         2.805713030429493E-011
   4.91767500000000         2.489591802527664E-011
   5.03072500000000         2.125984127035663E-011
   5.14377500000000         1.716078340096789E-011
   5.25682500000000         1.261274405796808E-011
   5.36987500000000         7.630758247333422E-012
   5.48292500000000         2.229813336264044E-012
   5.59597500000000        -3.576343659078375E-012
   5.70902500000000        -9.776095756800440E-012
   5.82207500000000        -1.636078380102925E-011
   5.93512500000000        -2.332500208825032E-011
   6.04817500000000        -3.066658353304152E-011
   6.16122500000000        -3.838646018131166E-011
   6.27427500000000        -4.648797324402557E-011
   6.38732500000000        -5.497576865848611E-011
   6.50037500000000        -6.385435877134932E-011
   6.61342500000000        -7.312652000477542E-011
   6.72647500000000        -8.279139463035166E-011
   6.83952500000000        -9.284249121089860E-011
   6.95257500000000        -1.032656376765254E-010
   7.06562500000000        -1.140371272665661E-010
   7.17867500000000        -1.251221375791457E-010
   7.29172500000000        -1.364733889362011E-010
   7.40477500000000        -1.480303389506720E-010
   7.51782500000000        -1.597188774043613E-010
   7.63087500000000        -1.714517353672437E-010
   7.74392500000000        -1.831293363669862E-010
   7.85697500000000        -1.946415803159388E-010
   7.97002500000000        -2.058701083868247E-010
   8.08307500000000        -2.166910702798562E-010
   8.19612500000000        -2.269786324387860E-010
   8.30917500000000        -2.366084197055534E-010
   8.42222500000000        -2.454614061516092E-010
   8.53527500000000        -2.534277585784815E-010
   8.64832500000000        -2.604104737788350E-010
   8.76137500000000        -2.663286946583170E-010
   8.87442500000000        -2.711205105500928E-010
   8.98747500000000        -2.747450614395078E-010
   9.10052500000000        -2.771837214252757E-010
   9.21357500000000        -2.784405054211721E-010
   9.32662500000000        -2.785414909558718E-010
   9.43967500000000        -2.775332279314992E-010
   9.55272500000000        -2.754802833795811E-010
   9.66577500000000        -2.724620304182789E-010
   9.77882500000000        -2.685685956969926E-010
   9.89187500000000        -2.638965070256710E-010
   10.0049250000000        -2.585439847993264E-010
   10.1179750000000        -2.526061107018196E-010
   10.2310250000000        -2.461703249166290E-010
   10.3440750000000        -2.393123354676725E-010
   10.4571250000000        -2.320926071819802E-010
   10.5701750000000        -2.245537242447464E-010
   10.6832250000000        -2.167189121415691E-010
   10.7962750000000        -2.085914749519709E-010
   10.9093250000000        -2.001554056051114E-010
   11.0223750000000        -1.913773320799473E-010
   11.1354250000000        -1.822093040929605E-010
   11.2484750000000        -1.725924855927684E-010
   11.3615250000000        -1.624618381891402E-010
   11.4745750000000        -1.517510019834096E-010
   11.5876250000000        -1.403974924979639E-010
   11.7006750000000        -1.283478112052111E-010
   11.8137250000000        -1.155622181341101E-010
   11.9267750000000        -1.020186949784755E-010
   12.0398250000000        -8.771614347929834E-011
   12.1528750000000        -7.267643772008994E-011
   12.2659250000000        -5.694499067853027E-011
   12.3789750000000        -4.059015541595023E-011
   12.4920250000000        -2.370098250345323E-011
   12.6050750000000        -6.383910282921441E-012
   12.7181250000000         1.124194651521891E-011
   12.8311750000000         2.905062161453841E-011
   12.9442250000000         4.691558658951723E-011
   13.0572750000000         6.471662606498686E-011
   13.1703250000000         8.234681330232814E-011
   13.2833750000000         9.971915356199774E-011
   13.3964250000000         1.167725308083322E-010
   13.5094750000000         1.334767967271414E-010
   13.6225250000000         1.498364908578556E-010
   13.7355750000000         1.658929967865343E-010
   13.8486250000000         1.817251762244471E-010
   13.9616750000000         1.974481147794208E-010
   14.0747250000000         2.132101334857228E-010
   14.1877750000000         2.291880815107897E-010
   14.3008250000000         2.455812866555840E-010
   14.4138750000000         2.626041724057547E-010
   14.5269250000000         2.804779033250129E-010
   14.6399750000000         2.994217486973128E-010
   14.7530250000000         3.196442237708811E-010
   14.8660750000000         3.413345478194097E-010
   14.9791250000000         3.646548707188426E-010
   15.0921750000000         3.897335054363486E-010
   15.2052250000000         4.166597975566574E-010
   15.3182750000000         4.454806851627650E-010
   15.4313250000000         4.761990029741622E-010
   15.5443750000000         5.087738690882726E-010
   15.6574250000000         5.431230044871529E-010
   15.7704750000000         5.791268497574606E-010
   15.8835250000000         6.166345525801812E-010
   15.9965750000000         6.554710123135296E-010
   16.1096250000000         6.954450191910556E-010
   16.2226750000000         7.363581909644311E-010
   16.3357250000000         7.780137339048611E-010
   16.4487750000000         8.202251281069541E-010
   16.5618250000000         8.628241859776949E-010
   16.6748750000000         9.056677649026786E-010
   16.7879250000000         9.486431180153302E-010
   16.9009750000000         9.916717936139131E-010
   17.0140250000000         1.034711368803332E-009
   17.1270750000000         1.077755345063463E-009
   17.2401250000000         1.120831221355974E-009
   17.3531750000000         1.163996654952624E-009
   17.4662250000000         1.207334110839371E-009
   17.5792750000000         1.250944253825286E-009
   17.6923250000000         1.294938352266904E-009
   17.8053750000000         1.339430201024000E-009
   17.9184250000000         1.384527937431589E-009
   18.0314750000000         1.430326141259331E-009
   18.1445250000000         1.476898848208066E-009
   18.2575750000000         1.524293431463507E-009
   18.3706250000000         1.572526075962536E-009
   18.4836750000000         1.621578962509570E-009
   18.5967250000000         1.671399116918267E-009
   18.7097750000000         1.721899257183261E-009
   18.8228250000000         1.772960373629963E-009
   18.9358750000000         1.824436107965222E-009
   19.0489250000000         1.876158700929767E-009
   19.1619750000000         1.927945912219518E-009
   19.2750250000000         1.979609047184680E-009
   19.3880750000000         2.030961437708910E-009
   19.5011250000000         2.081826951863825E-009
   19.6141750000000         2.132048285627743E-009
   19.7272250000000         2.181494473903046E-009
   19.8402750000000         2.230067429673795E-009
   19.9533250000000         2.277707013021669E-009
   20.0663750000000         2.324394737919086E-009
   20.1794250000000         2.370155589537701E-009
   20.2924750000000         2.415058158265906E-009
   20.4055250000000         2.459212871024245E-009
   20.5185750000000         2.502768649562249E-009
   20.6316250000000         2.545908065625367E-009
   20.7446750000000         2.588841029142632E-009
   20.8577250000000         2.631797741745740E-009
   20.9707750000000         2.675020733951942E-009
   21.0838250000000         2.718756606840435E-009
   21.1968750000000         2.763247939726012E-009
   21.3099250000000         2.808725448781984E-009
   21.4229750000000         2.855400682277814E-009
   21.5360250000000         2.903459876844098E-009
   21.6490750000000         2.953058911826367E-009
   21.7621250000000         3.004319531911687E-009
   21.8751750000000         3.057327143861664E-009
   21.9882250000000         3.112129939179876E-009
   22.1012750000000         3.168739592293576E-009
   22.2143250000000         3.227133373751720E-009
   22.3273750000000         3.287257315590587E-009
   22.4404250000000         3.349030548406693E-009
   22.5534750000000         3.412350483343398E-009
   22.6665250000000         3.477098559063917E-009
   22.7795750000000         3.543146323780595E-009
   22.8926250000000         3.610361455397397E-009
   23.0056750000000         3.678613633047270E-009
   23.1187250000000         3.747780103926667E-009
   23.2317750000000         3.817750479454300E-009
   23.3448250000000         3.888430701200662E-009
   23.4578750000000         3.959746058778405E-009
   23.5709250000000         4.031643301688524E-009
   23.6839750000000         4.104091612245512E-009
   23.7970250000000         4.177082286328921E-009
   23.9100750000000         4.250627695051734E-009
   24.0231250000000         4.324759179602597E-009
   24.1361750000000         4.399524079353822E-009
   24.2492250000000         4.474982232934320E-009
   24.3622750000000         4.551201699989197E-009
   24.4753250000000         4.628254453723882E-009
   24.5883750000000         4.706212019931531E-009
   24.7014250000000         4.785140940616531E-009
   24.8144750000000         4.865098679780969E-009
   24.9275250000000         4.946130036423831E-009
   25.0405750000000         5.028264233946859E-009
   25.1536250000000         5.111512709426416E-009
   25.2666750000000         5.195867769628690E-009
   25.3797250000000         5.281302299617055E-009
   25.4927750000000         5.367770400521432E-009
   25.6058250000000         5.455209027851858E-009
   25.7188750000000         5.543540600383104E-009
   25.8319250000000         5.632676431177971E-009
   25.9449750000000         5.722520895039364E-009
   26.0580250000000         5.812976230857909E-009
   26.1710750000000         5.903947725799357E-009
   26.2841250000000         5.995348978497835E-009
   26.3971750000000         6.087107228553427E-009
   26.5102250000000         6.179168493243054E-009
   26.6232750000000         6.271502106280542E-009
   26.7363250000000         6.364104618589984E-009
   26.8493750000000         6.457002731541310E-009
   26.9624250000000         6.550255218114586E-009
   27.0754750000000         6.643953738972014E-009
   27.1885250000000         6.738222338883607E-009
   27.3015750000000         6.833215492247268E-009
   27.4146250000000         6.929115071788139E-009
   27.5276750000000         7.026126047877701E-009
   27.6407250000000         7.124470969994129E-009
   27.7537750000000         7.224383773495494E-009
   27.8668250000000         7.326102690943457E-009
   27.9798750000000         7.429862823297170E-009
   28.0929250000000         7.535888550178016E-009
   28.2059750000000         7.644386069819450E-009
   28.3190250000000         7.755536447915525E-009
   28.4320750000000         7.869489359476569E-009
   28.5451250000000         7.986357762450552E-009
   28.6581750000000         8.106213974421529E-009
   28.7712250000000         8.229087112241142E-009
   28.8842750000000         8.354961973644446E-009
   28.9973250000000         8.483779726259946E-009
   29.1103750000000         8.615440072759575E-009
   29.2234250000000         8.749805040043257E-009
   29.3364750000000         8.886704096682684E-009
   29.4495250000000         9.025940592804741E-009
   29.5625750000000         9.167299063089566E-009
   29.6756250000000         9.310553140709411E-009
   29.7886750000000         9.455473866215115E-009
   29.9017250000000         9.601837882475926E-009
   30.0147750000000         9.749435360497745E-009
   30.1278250000000         9.898077084860992E-009
   30.2408750000000         1.004760058207330E-008
   30.3539250000000         1.019787489394673E-008
   30.4669750000000         1.034880408525139E-008
   30.5800250000000         1.050032893243646E-008
   30.6930750000000         1.065242691634397E-008
   30.8061250000000         1.080511085130371E-008
   30.9191750000000         1.095842563490781E-008
   31.0322250000000         1.111244375532778E-008
   31.1452750000000         1.126725970092646E-008
   31.2583250000000         1.142298345341870E-008
   31.3713750000000         1.157973340561636E-008
   31.4844250000000         1.173762899019756E-008
   31.5974750000000         1.189678367200828E-008
   31.7105250000000         1.205729821386101E-008
   31.8235750000000         1.221925487382297E-008
   31.9366250000000         1.238271269494957E-008
   32.0496750000000         1.254770396957406E-008
   32.1627250000000         1.271423229953787E-008
   32.2757750000000         1.288227212763671E-008
   32.3888250000000         1.305176983517824E-008
   32.5018750000000         1.322264632061905E-008
   32.6149250000000         1.339480095705012E-008
   32.7279750000000         1.356811655293754E-008
   32.8410250000000         1.374246537049450E-008
   32.9540750000000         1.391771568638432E-008
   33.0671250000000         1.409373851266507E-008
   33.1801750000000         1.427041431839981E-008
   33.2932250000000         1.444763935711739E-008
   33.4062750000000         1.462533117576083E-008
   33.5193250000000         1.480343327920230E-008
   33.6323750000000         1.498191858886835E-008
   33.7454250000000         1.516079138180968E-008
   33.8584750000000         1.534008793421933E-008
   33.9715250000000         1.551987549628627E-008
   34.0845750000000         1.570024999571726E-008
   34.1976250000000         1.588133234582733E-008
   34.3106750000000         1.606326357358208E-008
   34.4237250000000         1.624619917349038E-008
   34.5367750000000         1.643030258715842E-008
   34.6498250000000         1.661573845007243E-008
   34.7628750000000         1.680266590080815E-008
   34.8759250000000         1.699123203750894E-008
   34.9889750000000         1.718156603506831E-008
   35.1020250000000         1.737377411574046E-008
   35.2150750000000         1.756793555953994E-008
   35.3281250000000         1.776409998514342E-008
   35.4411750000000         1.796228603917068E-008
   35.5542250000000         1.816248154079918E-008
   35.6672750000000         1.836464495754614E-008
   35.7803250000000         1.856870826101771E-008
   35.8933750000000         1.877458094798917E-008
   36.0064250000000         1.898215511961797E-008
   36.1194750000000         1.919131128454015E-008
   36.2325250000000         1.940192473073586E-008
   36.3455750000000         1.961387202707012E-008
   36.4586250000000         1.982703740526086E-008
   36.5716750000000         2.004131880958060E-008
   36.6847250000000         2.025663336694001E-008
   36.7977750000000         2.047292181537095E-008
   36.9108250000000         2.069015181869274E-008
   37.0238750000000         2.090832024206722E-008
   37.1369250000000         2.112745385386346E-008
   37.2499750000000         2.134760870786847E-008
   37.3630250000000         2.156886828915070E-008
   37.4760750000000         2.179134018923252E-008
   37.5891250000000         2.201515183291980E-008
   37.7021750000000         2.224044522865703E-008
   37.8152250000000         2.246737085145193E-008
   37.9282750000000         2.269608133100681E-008
   38.0413250000000         2.292672485427531E-008
   38.1543750000000         2.315943877599455E-008
   38.2674250000000         2.339434359779885E-008
   38.3804750000000         2.363153763535986E-008
   38.4935250000000         2.387109253658117E-008
   38.6065750000000         2.411305016564538E-008
   38.7196250000000         2.435742067693098E-008
   38.8326750000000         2.460418175882975E-008
   38.9457250000000         2.485327953482964E-008
   39.0587750000000         2.510463087070106E-008
   39.1718250000000         2.535812694962895E-008
   39.2848750000000         2.561363791277298E-008
   39.3979250000000         2.587101859332105E-008
   39.5109750000000         2.613011504753425E-008
   39.6240250000000         2.639077155497960E-008
   39.7370750000000         2.665283765711632E-008
   39.8501250000000         2.691617518421796E-008
   39.9631750000000         2.718066488204855E-008
   40.0762250000000         2.744621220144864E-008
   40.1892750000000         2.771275220713730E-008
   40.3023250000000         2.798025334127443E-008
   40.4153750000000         2.824871976375629E-008
   40.5284250000000         2.851819208483039E-008
   40.6414750000000         2.878874671616908E-008
   40.7545250000000         2.906049375691323E-008
   40.8675750000000         2.933357337352430E-008
   40.9806250000000         2.960815084146076E-008
   41.0936750000000         2.988441057394235E-008
   41.2067250000000         3.016254931379718E-008
   41.3197750000000         3.044276886635870E-008
   41.4328250000000         3.072526852112106E-008
   41.5458750000000         3.101023743943722E-008
   41.6589250000000         3.129784770606784E-008
   41.7719750000000         3.158824804129872E-008
   41.8850250000000         3.188155849983382E-008
   41.9980750000000         3.217786644215825E-008
   42.1111250000000         3.247722392393294E-008
   42.2241750000000         3.277964660325225E-008
   42.3372250000000         3.308511426312900E-008
   42.4502750000000         3.339357278240048E-008
   42.5633250000000         3.370493784025713E-008
   42.6763750000000         3.401909974168544E-008
   42.7894250000000         3.433592919820168E-008
   42.9024750000000         3.465528421290551E-008
   43.0155250000000         3.497701737635159E-008
   43.1285750000000         3.530098319764407E-008
   43.2416250000000         3.562704543513754E-008
   43.3546750000000         3.595508400505268E-008
   43.4677250000000         3.628500077454553E-008
   43.5807750000000         3.661672455852513E-008
   43.6938250000000         3.695021476730700E-008
   43.8068750000000         3.728546351945043E-008
   43.9199250000000         3.762249621552926E-008
   44.0329750000000         3.796137046155861E-008
   44.1460250000000         3.830217354363496E-008
   44.2590750000000         3.864501822285893E-008
   44.3721250000000         3.899003751086988E-008
   44.4851750000000         3.933737833262472E-008
   44.5982250000000         3.968719425477679E-008
   44.7112750000000         4.003963803958451E-008
   44.8243250000000         4.039485382897769E-008
   44.9373750000000         4.075296951803122E-008
   45.0504250000000         4.111408989267164E-008
   45.1634750000000         4.147829045378173E-008
   45.2765250000000         4.184561222768627E-008
   45.3895750000000         4.221605808353934E-008
   45.5026250000000         4.258959046200833E-008
   45.6156750000000         4.296613064206893E-008
   45.7287250000000         4.334555969129951E-008
   45.8417750000000         4.372772102760466E-008
   45.9548250000000         4.411242464881216E-008
   46.0678750000000         4.449945265713632E-008
   46.1809250000000         4.488856601287219E-008
   46.2939750000000         4.527951246859810E-008
   46.4070250000000         4.567203519499154E-008
   46.5200750000000         4.606588190071553E-008
   46.6331250000000         4.646081422367158E-008
   46.7461750000000         4.685661705012870E-008
   46.8592250000000         4.725310750953353E-008
   46.9722750000000         4.765014323064308E-008
   47.0853250000000         4.804762972024931E-008
   47.1983750000000         4.844552666780670E-008
   47.3114250000000         4.884385271231992E-008
   47.4244750000000         4.924268869947398E-008
   47.5375250000000         4.964217922592665E-008
   47.6505750000000         5.004253219567136E-008
   47.7636250000000         5.044401635427071E-008
   47.8766750000000         5.084695678498208E-008
   47.9897250000000         5.125172837497888E-008
   48.1027750000000         5.165874720530906E-008
   48.2158250000000         5.206845981687681E-008
   48.3288750000000         5.248133080203373E-008
   48.4419250000000         5.289782874116530E-008
   48.5549750000000         5.331841061847238E-008
   48.6680250000000         5.374350532729808E-008
   48.7810750000000         5.417349656955127E-008
   48.8941250000000         5.460870562565519E-008
   49.0071750000000         5.504937440698501E-008
   49.1202250000000         5.549564965575169E-008
   49.2332750000000         5.594756892918584E-008
   49.3463250000000         5.640504882318130E-008
   49.4593750000000         5.686787630135282E-008
   49.5724250000000         5.733570390595834E-008
   49.6854750000000         5.780804923551203E-008
   49.7985250000000         5.828429934343328E-008
   49.9115750000000         5.876372072475049E-008
   50.0246250000000         5.924547473783178E-008
   50.1376750000000         5.972863882526455E-008
   50.2507250000000         6.021223331074323E-008
   50.3637750000000         6.069525332356500E-008
   50.4768250000000         6.117670564764049E-008
   50.5898750000000         6.165564888922514E-008
   50.7029250000000         6.213123615710216E-008
   50.8159750000000         6.260275888500261E-008
   50.9290250000000         6.306969013755984E-008
   51.0420750000000         6.353172543511737E-008
   51.1551250000000         6.398881907590838E-008
   51.2681750000000         6.444121426544890E-008
   51.3812250000000         6.488946482049749E-008
   51.4942750000000         6.533444683468769E-008
   51.6073250000000         6.577735828669393E-008
   51.7203750000000         6.621970571482051E-008
   51.8334250000000         6.666327694357136E-008
   51.9464750000000         6.711009908641578E-008
   52.0595250000000         6.756238243772515E-008
   52.1725750000000         6.802245074086841E-008
   52.2856250000000         6.849265934449714E-008
   52.3986750000000         6.897530345836917E-008
   52.5117250000000         6.947251902197762E-008
   52.6247750000000         6.998617953950910E-008
   52.7378250000000         7.051779283957266E-008
   52.8508750000000         7.106840215584023E-008
   52.9639250000000         7.163849587339806E-008
   53.0769750000000         7.222793054718412E-008
   53.1900250000000         7.283587188792845E-008
   53.3030750000000         7.346075793736568E-008
   53.4161250000000         7.410028818083941E-008
   53.5291750000000         7.475144157807799E-008
   53.6422250000000         7.541052598260038E-008
   53.7552750000000         7.607325973360550E-008
   53.8683250000000         7.673488520011750E-008
   53.9813750000000         7.739031310364877E-008
   54.0944250000000         7.803429443928523E-008
   54.2074750000000         7.866161580647956E-008
   54.3205250000000         7.926731245698362E-008
   54.4335750000000         7.984689177882297E-008
   54.5466250000000         8.039655939832892E-008
   54.6596750000000         8.091343916822913E-008
   54.7727250000000         8.139577706743721E-008
   54.8857750000000         8.184311951276960E-008
   54.9988250000000         8.225645651257048E-008
   55.1118750000000         8.263832059536344E-008
   55.2249250000000         8.299283342955928E-008
   55.3379750000000         8.332569353820815E-008
   55.4510250000000         8.364410026789731E-008
   55.5640750000000         8.395661101260920E-008
   55.6771250000000         8.427293168157408E-008
   55.7901750000000         8.460364275912107E-008
   55.9032250000000         8.495986599856668E-008
   56.0162750000000         8.535287970616152E-008
   56.1293250000000         8.579369359298237E-008
   56.2423750000000         8.629259615860272E-008
   56.3554250000000         8.685869023341291E-008
   56.4684750000000         8.749943413304447E-008
   56.5815250000000         8.822020662436143E-008
   56.6945750000000         8.902391503323886E-008
   56.8076250000000         8.991066538496138E-008
   56.9206750000000         9.087751291390990E-008
   57.0337250000000         9.191830934268532E-008
   57.1467750000000         9.302366107805553E-008
   57.2598250000000         9.418100896000462E-008
   57.3728750000000         9.537483674856789E-008
   57.4859250000000         9.658701092162824E-008
   57.5989750000000         9.779724913324343E-008
   57.7120250000000         9.898371017495452E-008
   57.8250750000000         1.001236923127349E-007
   57.9381250000000         1.011944216385386E-007
   58.0511750000000         1.021739081141356E-007
   58.1642250000000         1.030418414167726E-007
   58.2772750000000         1.037804955491442E-007
   58.3903250000000         1.043756086606103E-007
   58.5033750000000         1.048172024268801E-007
   58.6164250000000         1.051003053165661E-007
   58.7294750000000         1.052255445180455E-007
   58.8425250000000         1.051995743694591E-007
   58.9555750000000         1.050353122527523E-007
   59.0686250000000         1.047519583350924E-007
   59.1816750000000         1.043747818789132E-007
   59.2947250000000         1.039346644387922E-007
   59.4077750000000         1.034673988054362E-007
   59.5208250000000         1.030127512048893E-007
   59.6338750000000         1.026133041995232E-007
   59.7469250000000         1.023131071072371E-007
   59.8599750000000         1.021561694800161E-007
   59.9730250000000         1.021848421463089E-007
   60.0860750000000         1.024381373895258E-007
   60.1991250000000         1.029500457198693E-007
   60.3121750000000         1.037479111338737E-007
   60.4252250000000         1.048509287208005E-007
   60.5382750000000         1.062688287421854E-007
   60.6513250000000         1.080008085941069E-007
   60.7643750000000         1.100347695381848E-007
   60.8774250000000         1.123469079742008E-007
   60.9904750000000         1.149017010228740E-007
   61.1035250000000         1.176523152334193E-007
   61.2165750000000         1.205414533807174E-007
   61.3296250000000         1.235026395754145E-007
   61.4426750000000         1.264619270887165E-007
   61.5557250000000         1.293399971119328E-007
   61.6687750000000         1.320546003951628E-007
   61.7818250000000         1.345232780023302E-007
   61.8948750000000         1.366662834239838E-007
   62.0079250000000         1.384096155185993E-007
   62.1209750000000         1.396880623835517E-007
   62.2340250000000         1.404481487420265E-007
   62.3470750000000         1.406508755607750E-007
   62.4601250000000         1.402741413868109E-007
   62.5731750000000         1.393147379492736E-007
   62.6862250000000         1.377898210572501E-007
   62.7992750000000         1.357377696389234E-007
   62.9123250000000         1.332183611704034E-007
   63.0253750000000         1.303122112364515E-007
   63.1384250000000         1.271194470997687E-007
   63.2514750000000         1.237576096553052E-007
   63.3645250000000         1.203588045650371E-007
   63.4775750000000         1.170661507615691E-007
   63.5906250000000         1.140296015897049E-007
   63.7036750000000         1.114012404292512E-007
   63.8167250000000         1.093301771743601E-007
   63.9297750000000         1.079571937599500E-007
   64.0428250000000         1.074093050048688E-007
   64.1558750000000         1.077944148764147E-007
   64.2689250000000         1.091962561567966E-007
   64.3819750000000         1.116698045368037E-007
   64.4950250000000         1.152373545825003E-007
   64.6080750000000         1.198854343293460E-007
   64.7211250000000         1.255627189411612E-007
   64.8341750000000         1.321790808858279E-007
   64.9472250000000         1.396058849717972E-007
   65.0602750000000         1.476776023764779E-007
   65.1733250000000         1.561947785016804E-007
   65.2863750000000         1.649283472277680E-007
   65.3994250000000         1.736252393314077E-007
   65.5124750000000         1.820151866632686E-007