 -0.847875000000000         2.729122652709034E-019
 -0.734825000000000         1.912966539861810E-018
 -0.621775000000000         1.153281536415114E-017
 -0.508725000000000         5.315368523058383E-017
 -0.395675000000000         2.002780820857734E-016
 -0.282625000000000         6.332787822494630E-016
 -0.169575000000000         1.702344618603526E-015
 -5.652500000000005E-002    3.929695462592322E-015
  5.652499999999994E-002    7.868446675412910E-015
  0.169575000000000         1.377642714314458E-014
  0.282625000000000         2.125118827954729E-014
  0.395675000000000         2.886142404335423E-014
  0.508725000000000         3.402544893811517E-014
  0.621775000000000         3.297665059404307E-014
  0.734825000000000         2.085071526453749E-014
  0.847875000000000        -8.398120197490714E-015
  0.960925000000000        -6.180575650803460E-014
   1.07397500000000        -1.471938887587245E-013
   1.18702500000000        -2.736446866123919E-013
   1.30007500000000        -4.508934074095485E-013
   1.41312500000000        -6.893518603161264E-013
   1.52617500000000        -9.997087828590245E-013
   1.63922500000000        -1.393209973143498E-012
   1.75227500000000        -1.880980589601315E-012
   1.86532500000000        -2.473402920992548E-012
   1.97837500000000        -3.180722322611085E-012
   2.09142500000000        -4.011814404174849E-012
   2.20447500000000        -4.974162508908143E-012
   2.31752500000000        -6.072400509935179E-012
   2.43057500000000        -7.310821878941114E-012
   2.54362500000000        -8.690193320043659E-012
   2.65667500000000        -1.020813809957926E-011
   2.76972500000000        -1.186116942015111E-011
   2.88277500000000        -1.364086154067565E-011
   2.99582500000000        -1.553662338339518E-011
   3.10887500000000        -1.753486528577827E-011
   3.22192500000000        -1.962126185704155E-011
   3.33497500000000        -2.177673935370568E-011
   3.44802500000000        -2.398053421540556E-011
   3.56107500000000        -2.621278601927819E-011
   3.67412500000000        -2.845019574820656E-011
   3.78717500000000        -3.067214048223688E-011
   3.90022500000000        -3.285419931484206E-011
   4.01327500000000        -3.497792839585058E-011
   4.12632500000000        -3.702181639053402E-011
   4.23937500000000        -3.897007569877726E-011
   4.35242500000000        -4.080704880700768E-011
   4.46547500000000        -4.251990481549388E-011
   4.57852500000000        -4.410013756350384E-011
   4.69157500000000        -4.554105691263290E-011
   4.80462500000000        -4.683968214111659E-011
   4.91767500000000        -4.799564632626565E-011
   5.03072500000000        -4.901029051536886E-011
   5.14377500000000        -4.988791397217324E-011
   5.25682500000000        -5.063510324349848E-011
   5.36987500000000        -5.125751596618554E-011
   5.48292500000000        -5.176480471851278E-011
   5.59597500000000        -5.216445356235711E-011
   5.70902500000000        -5.246480169329457E-011
   5.82207500000000        -5.267213488559519E-011
   5.93512500000000        -5.279490342660791E-011
   6.04817500000000        -5.283909651393783E-011
   6.16122500000000        -5.280830778481697E-011
   6.27427500000000        -5.270580988835417E-011
   6.38732500000000        -5.253679024912515E-011
   6.50037500000000        -5.230383704741074E-011
   6.61342500000000        -5.200866816734603E-011
   6.72647500000000        -5.165539109184409E-011
   6.83952500000000        -5.124778143859574E-011
   6.95257500000000        -5.079179611564621E-011
   7.06562500000000        -5.029237705623575E-011
   7.17867500000000        -4.976114010997867E-011
   7.29172500000000        -4.920860898823908E-011
   7.40477500000000        -4.864504711697419E-011
   7.51782500000000        -4.808872282765664E-011
   7.63087500000000        -4.755562738771816E-011
   7.74392500000000        -4.706490036333668E-011
   7.85697500000000        -4.663355312353438E-011
   7.97002500000000        -4.628244416597537E-011
   8.08307500000000        -4.602776199931894E-011
   8.19612500000000        -4.588739522587686E-011
   8.30917500000000        -4.587517394925677E-011
   8.42222500000000        -4.599917870503301E-011
   8.53527500000000        -4.626643313699568E-011
   8.64832500000000        -4.667794102479765E-011
   8.76137500000000        -4.722855798033295E-011
   8.87442500000000        -4.790794935755437E-011
   8.98747500000000        -4.870137371093716E-011
   9.10052500000000        -4.958643747576935E-011
   9.21357500000000        -5.053830057188551E-011
   9.32662500000000        -5.152711954908394E-011
   9.43967500000000        -5.252131010058747E-011
   9.55272500000000        -5.348717031096730E-011
   9.66577500000000        -5.439068844760792E-011
   9.77882500000000        -5.520042325904307E-011
   9.89187500000000        -5.588687391951122E-011
   10.0049250000000        -5.642416036332071E-011
   10.1179750000000        -5.679506304626411E-011
   10.2310250000000        -5.698594316847470E-011
   10.3440750000000        -5.699182214739982E-011
   10.4571250000000        -5.681510119323382E-011
   10.5701750000000        -5.646743641750683E-011
   10.6832250000000        -5.596604854105979E-011
   10.7962750000000        -5.533691233411877E-011
   10.9093250000000        -5.461169320964619E-011
   11.0223750000000        -5.382524989649566E-011
   11.1354250000000        -5.301733805293877E-011
   11.2484750000000        -5.222927488285973E-011
   11.3615250000000        -5.149910427927226E-011
   11.4745750000000        -5.086619304948439E-011
   11.5876250000000        -5.036409534600604E-011
   11.7006750000000        -5.001863326928574E-011
   11.8137250000000        -4.985230518207829E-011
   11.9267750000000        -4.987791642467518E-011
   12.0398250000000        -5.009726177005531E-011
   12.1528750000000        -5.050666867024396E-011
   12.2659250000000        -5.109130127099886E-011
   12.3789750000000        -5.182964037041957E-011
   12.4920250000000        -5.269158195312113E-011
   12.6050750000000        -5.364066566779839E-011
   12.7181250000000        -5.463829283348220E-011
   12.8311750000000        -5.564175549354195E-011
   12.9442250000000        -5.660805996479940E-011
   13.0572750000000        -5.749619748080718E-011
   13.1703250000000        -5.826743864939713E-011
   13.2833750000000        -5.888929253645506E-011
   13.3964250000000        -5.933589287539160E-011
   13.5094750000000        -5.958761055673278E-011
   13.6225250000000        -5.963458985689913E-011
   13.7355750000000        -5.947517306411514E-011
   13.8486250000000        -5.911773092500412E-011
   13.9616750000000        -5.857748606640704E-011
   14.0747250000000        -5.787738568826906E-011
   14.1877750000000        -5.704782974314852E-011
   14.3008250000000        -5.612166140149025E-011
   14.4138750000000        -5.513756480483426E-011
   14.5269250000000        -5.413381957102102E-011
   14.6399750000000        -5.314652397838388E-011
   14.7530250000000        -5.221362341164376E-011
   14.8660750000000        -5.136574683358265E-011
   14.9791250000000        -5.062957450396850E-011
   15.0921750000000        -5.002467683328271E-011
   15.2052250000000        -4.956533667992809E-011
   15.3182750000000        -4.925791755614359E-011
   15.4313250000000        -4.910102155343782E-011
   15.5443750000000        -4.908798848616487E-011
   15.6574250000000        -4.920716494514110E-011
   15.7704750000000        -4.944068295084682E-011
   15.8835250000000        -4.976967511143360E-011
   15.9965750000000        -5.017193060004803E-011
   16.1096250000000        -5.062827698063817E-011
   16.2226750000000        -5.111801995921604E-011
   16.3357250000000        -5.162670447827794E-011
   16.4487750000000        -5.214324948559917E-011
   16.5618250000000        -5.266185696302958E-011
   16.6748750000000        -5.318240863966669E-011
   16.7879250000000        -5.371259470219918E-011
   16.9009750000000        -5.426368940820635E-011
   17.0140250000000        -5.485277202552529E-011
   17.1270750000000        -5.550441114176843E-011
   17.2401250000000        -5.624272362970195E-011
   17.3531750000000        -5.709586223455695E-011
   17.4662250000000        -5.808916807017967E-011
   17.5792750000000        -5.924840889319920E-011
   17.6923250000000        -6.059465942741586E-011
   17.8053750000000        -6.214487716472707E-011
   17.9184250000000        -6.390460747190720E-011
   18.0314750000000        -6.587842235118048E-011
   18.1445250000000        -6.805345936901047E-011
   18.2575750000000        -7.041524642962875E-011
   18.3706250000000        -7.293177146037569E-011
   18.4836750000000        -7.557077533273691E-011
   18.5967250000000        -7.828238301952247E-011
   18.7097750000000        -8.101746758459657E-011
   18.8228250000000        -8.371564821321451E-011
   18.9358750000000        -8.631898670787895E-011
   19.0489250000000        -8.876362798105957E-011
   19.1619750000000        -9.099085452440260E-011
   19.2750250000000        -9.294190370092270E-011
   19.3880750000000        -9.456951147783613E-011
   19.5011250000000        -9.582903359395750E-011
   19.6141750000000        -9.669131970194365E-011
   19.7272250000000        -9.713474865123188E-011
   19.8402750000000        -9.715360524156724E-011
   19.9533250000000        -9.675418927370353E-011
   20.0663750000000        -9.595923290754058E-011
   20.1794250000000        -9.480039443016166E-011
   20.2924750000000        -9.332715057567428E-011
   20.4055250000000        -9.159542085932236E-011
   20.5185750000000        -8.967293048660578E-011
   20.6316250000000        -8.763339916348565E-011
   20.7446750000000        -8.555451462767588E-011
   20.8577250000000        -8.351766087746069E-011
   20.9707750000000        -8.160153282546741E-011
   21.0838250000000        -7.988176595421719E-011
   21.1968750000000        -7.842926384958302E-011
   21.3099250000000        -7.730465574895077E-011
   21.4229750000000        -7.655957818893345E-011
   21.5360250000000        -7.623317863988972E-011
   21.6490750000000        -7.635405367211336E-011
   21.7621250000000        -7.693442094043209E-011
   21.8751750000000        -7.797637711525321E-011
   21.9882250000000        -7.946746439044923E-011
   22.1012750000000        -8.138493490845374E-011
   22.2143250000000        -8.369512220466304E-011
   22.3273750000000        -8.635539896677193E-011
   22.4404250000000        -8.931727114565274E-011
   22.5534750000000        -9.252714680339799E-011
   22.6665250000000        -9.593095066510979E-011
   22.7795750000000        -9.947154569992722E-011
   22.8926250000000        -1.030960382880542E-010
   23.0056750000000        -1.067550409996981E-010
   23.1187250000000        -1.104039334135678E-010
   23.2317750000000        -1.140037413731172E-010
   23.3448250000000        -1.175240150611889E-010
   23.4578750000000        -1.209395530659412E-010
   23.5709250000000        -1.242355511023600E-010
   23.6839750000000        -1.274004594479673E-010
   23.7970250000000        -1.304327272850542E-010
   23.9100750000000        -1.333334847636662E-010
   24.0231250000000        -1.361057321732440E-010
   24.1361750000000        -1.387588398260789E-010
   24.2492250000000        -1.412997565064958E-010
   24.3622750000000        -1.437351756134740E-010
   24.4753250000000        -1.460693853428906E-010
   24.5883750000000        -1.483041815780201E-010
   24.7014250000000        -1.504364498353050E-010
   24.8144750000000        -1.524582175600369E-010
   24.9275250000000        -1.543568911544497E-010
   25.0405750000000        -1.561145952945939E-010
   25.1536250000000        -1.577099847051506E-010
   25.2666750000000        -1.591183929335447E-010
   25.3797250000000        -1.603137842192989E-010
   25.4927750000000        -1.612690143282677E-010
   25.6058250000000        -1.619593044550612E-010
   25.7188750000000        -1.623629840725938E-010
   25.8319250000000        -1.624636397709516E-010
   25.9449750000000        -1.622519181348355E-010
   26.0580250000000        -1.617263134626607E-010
   26.1710750000000        -1.608945815175383E-010
   26.2841250000000        -1.597765773272930E-010
   26.3971750000000        -1.583998941810833E-010
   26.5102250000000        -1.568041933880367E-010
   26.6232750000000        -1.550392558007852E-010
   26.7363250000000        -1.531631651086850E-010
   26.8493750000000        -1.512406953022754E-010
   26.9624250000000        -1.493410078937617E-010
   27.0754750000000        -1.475380240342592E-010
   27.1885250000000        -1.459025200504371E-010
   27.3015750000000        -1.445075294100023E-010
   27.4146250000000        -1.434166956321135E-010
   27.5276750000000        -1.426881943654532E-010
   27.6407250000000        -1.423695285770307E-010
   27.7537750000000        -1.424978168743256E-010
   27.8668250000000        -1.430945970537200E-010
   27.9798750000000        -1.441679645921946E-010
   28.0929250000000        -1.457123097777135E-010
   28.2059750000000        -1.477051098548471E-010
   28.3190250000000        -1.501099972587308E-010
   28.4320750000000        -1.528808834643369E-010
   28.5451250000000        -1.559552671977968E-010
   28.6581750000000        -1.592653316510575E-010
   28.7712250000000        -1.627359789838164E-010
   28.8842750000000        -1.662885864796509E-010
   28.9973250000000        -1.698415100417864E-010
   29.1103750000000        -1.733173129140902E-010
   29.2234250000000        -1.766429734108374E-010
   29.3364750000000        -1.797539708219489E-010
   29.4495250000000        -1.825932447968118E-010
   29.5625750000000        -1.851179132642773E-010
   29.6756250000000        -1.872957002249621E-010
   29.7886750000000        -1.891091614349732E-010
   29.9017250000000        -1.905558672071143E-010
   30.0147750000000        -1.916462437051895E-010
   30.1278250000000        -1.924004247471472E-010
   30.2408750000000        -1.928556964715364E-010
   30.3539250000000        -1.930554684659541E-010
   30.4669750000000        -1.930498581766872E-010
   30.5800250000000        -1.928942448293812E-010
   30.6930750000000        -1.926492021068327E-010
   30.8061250000000        -1.923700688126280E-010
   30.9191750000000        -1.921126290456786E-010
   31.0322250000000        -1.919263524770628E-010
   31.1452750000000        -1.918531516975649E-010
   31.2583250000000        -1.919257461502165E-010
   31.3713750000000        -1.921667806885842E-010
   31.4844250000000        -1.925877206200345E-010
   31.5974750000000        -1.931880961332466E-010
   31.7105250000000        -1.939567083457793E-010
   31.8235750000000        -1.948716942518083E-010
   31.9366250000000        -1.959011930852828E-010
   32.0496750000000        -1.970071633458127E-010
   32.1627250000000        -1.981423766045279E-010
   32.2757750000000        -1.992601626180494E-010
   32.3888250000000        -2.003094669458888E-010
   32.5018750000000        -2.012396995430395E-010
   32.6149250000000        -2.020040826531442E-010
   32.7279750000000        -2.025618832644661E-010
   32.8410250000000        -2.028794683597771E-010
   32.9540750000000        -2.029280901842013E-010
   33.0671250000000        -2.026952797057314E-010
   33.1801750000000        -2.021782394254205E-010
   33.2932250000000        -2.013814450586919E-010
   33.4062750000000        -2.003263710103537E-010
   33.5193250000000        -1.990440432602433E-010
   33.6323750000000        -1.975767231769788E-010
   33.7454250000000        -1.959742249120516E-010
   33.8584750000000        -1.942958649523499E-010
   33.9715250000000        -1.926071471245343E-010
   34.0845750000000        -1.909761368035650E-010
   34.1976250000000        -1.894736003118809E-010
   34.3106750000000        -1.881689276213027E-010
   34.4237250000000        -1.871285695034044E-010
   34.5367750000000        -1.864120834543060E-010
   34.6498250000000        -1.860729838888685E-010
   34.7628750000000        -1.861550206012839E-010
   34.8759250000000        -1.866910227989267E-010
   34.9889750000000        -1.877004672929486E-010
   35.1020250000000        -1.891924991885440E-010
   35.2150750000000        -1.911619132943163E-010
   35.3281250000000        -1.935918911002916E-010
   35.4411750000000        -1.964536555031065E-010
   35.5542250000000        -1.997078173645662E-010
   35.6672750000000        -2.033061539844967E-010
   35.7803250000000        -2.071951462030530E-010
   35.8933750000000        -2.113137456416022E-010
   36.0064250000000        -2.156030755212979E-010
   36.1194750000000        -2.199994784590038E-010
   36.2325250000000        -2.244472402761092E-010
   36.3455750000000        -2.288911487301724E-010
   36.4586250000000        -2.332848582386109E-010
   36.5716750000000        -2.375912830861769E-010
   36.6847250000000        -2.417814312303520E-010
   36.7977750000000        -2.458388982814032E-010
   36.9108250000000        -2.497548392540191E-010
   37.0238750000000        -2.535341073729187E-010
   37.1369250000000        -2.571900041654647E-010
   37.2499750000000        -2.607426095971079E-010
   37.3630250000000        -2.642193135553524E-010
   37.4760750000000        -2.676518089675692E-010
   37.5891250000000        -2.710728908556841E-010
   37.7021750000000        -2.745133153513464E-010
   37.8152250000000        -2.780016512766706E-010
   37.9282750000000        -2.815592635344397E-010
   38.0413250000000        -2.851978047930793E-010
   38.1543750000000        -2.889200625379783E-010
   38.2674250000000        -2.927160631577348E-010
   38.3804750000000        -2.965622759289212E-010
   38.4935250000000        -3.004225274554311E-010
   38.6065750000000        -3.042491044256125E-010
   38.7196250000000        -3.079808050975364E-010
   38.8326750000000        -3.115505342893811E-010
   38.9457250000000        -3.148837109747958E-010
   39.0587750000000        -3.179005680364728E-010
   39.1718250000000        -3.205260219647354E-010
   39.2848750000000        -3.226869136217827E-010
   39.3979250000000        -3.243177657709334E-010
   39.5109750000000        -3.253679888462312E-010
   39.6240250000000        -3.258024165685622E-010
   39.7370750000000        -3.256032958086354E-010
   39.8501250000000        -3.247762857308663E-010
   39.9631750000000        -3.233488612110006E-010
   40.0762250000000        -3.213714699843744E-010
   40.1892750000000        -3.189180025995820E-010
   40.3023250000000        -3.160861591276087E-010
   40.4153750000000        -3.129896825643782E-010
   40.5284250000000        -3.097581287736266E-010
   40.6414750000000        -3.065337200166072E-010
   40.7545250000000        -3.034621673286859E-010
   40.8675750000000        -3.006944141424134E-010
   40.9806250000000        -2.983701357009720E-010
   41.0936750000000        -2.966235463851832E-010
   41.2067250000000        -2.955692626094226E-010
   41.3197750000000        -2.953016699827873E-010
   41.4328250000000        -2.958882494669735E-010
   41.5458750000000        -2.973688389696229E-010
   41.6589250000000        -2.997515987749332E-010
   41.7719750000000        -3.030125374526551E-010
   41.8850250000000        -3.070964294763442E-010
   41.9980750000000        -3.119188444592677E-010
   42.1111250000000        -3.173681777562753E-010
   42.2241750000000        -3.233106465000882E-010
   42.3372250000000        -3.295960388807867E-010
   42.4502750000000        -3.360635611924896E-010
   42.5633250000000        -3.425485996620170E-010
   42.6763750000000        -3.488906930068301E-010
   42.7894250000000        -3.549386460661925E-010
   42.9024750000000        -3.605585459119530E-010
   43.0155250000000        -3.656396871158729E-010
   43.1285750000000        -3.700981412409562E-010
   43.2416250000000        -3.738831760408115E-010
   43.3546750000000        -3.769770360115069E-010
   43.4677250000000        -3.793966364437422E-010
   43.5807750000000        -3.811928917948081E-010
   43.6938250000000        -3.824480359314894E-010
   43.8068750000000        -3.832705539449733E-010
   43.9199250000000        -3.837911871104746E-010
   44.0329750000000        -3.841564915165731E-010
   44.1460250000000        -3.845199939537506E-010
   44.2590750000000        -3.850322605977947E-010
   44.3721250000000        -3.858384366711134E-010
   44.4851750000000        -3.870646499739584E-010
   44.5982250000000        -3.888114342174848E-010
   44.7112750000000        -3.911508476784722E-010
   44.8243250000000        -3.941154180558161E-010
   44.9373750000000        -3.976997114222946E-010
   45.0504250000000        -4.018560087478071E-010
   45.1634750000000        -4.064931919611988E-010
   45.2765250000000        -4.114832085332900E-010
   45.3895750000000        -4.166604909348493E-010
   45.5026250000000        -4.218322443806615E-010
   45.6156750000000        -4.267853038754633E-010
   45.7287250000000        -4.312929675413120E-010
   45.8417750000000        -4.351287677094546E-010
   45.9548250000000        -4.380767650046797E-010
   46.0678750000000        -4.399407574771210E-010
   46.1809250000000        -4.405583526692672E-010
   46.2939750000000        -4.398089582210721E-010
   46.4070250000000        -4.376228451684437E-010
   46.5200750000000        -4.339859641324292E-010
   46.6331250000000        -4.289497342580939E-010
   46.7461750000000        -4.226261478750737E-010
   46.8592250000000        -4.151942853196599E-010
   46.9722750000000        -4.068875264894932E-010
   47.0853250000000        -3.979977119308676E-010
   47.1983750000000        -3.888558399195510E-010
   47.3114250000000        -3.798259585201161E-010
   47.4244750000000        -3.712913817872741E-010
   47.5375250000000        -3.636338517074163E-010
   47.6505750000000        -3.572258762102148E-010
   47.7636250000000        -3.524042355071762E-010
   47.8766750000000        -3.494607865233838E-010
   47.9897250000000        -3.486253051401171E-010
   48.1027750000000        -3.500513805717712E-010
   48.2158250000000        -3.538073146574002E-010
   48.3288750000000        -3.598670464360797E-010
   48.4419250000000        -3.681104965301567E-010
   48.5549750000000        -3.783196525492533E-010
   48.6680250000000        -3.901857855564258E-010
   48.7810750000000        -4.033190905654353E-010
   48.8941250000000        -4.172632278888380E-010
   49.0071750000000        -4.315096154176920E-010
   49.1202250000000        -4.455213056219969E-010
   49.2332750000000        -4.587539003150225E-010
   49.3463250000000        -4.706819560027420E-010
   49.4593750000000        -4.808225669424767E-010
   49.5724250000000        -4.887613164803748E-010
   49.6854750000000        -4.941742850391936E-010
   49.7985250000000        -4.968488709371180E-010
   49.9115750000000        -4.966994683872357E-010
   50.0246250000000        -4.937775492332323E-010
   50.1376750000000        -4.882780297288229E-010
   50.2507250000000        -4.805375635593710E-010
   50.3637750000000        -4.710255329731215E-010
   50.4768250000000        -4.603298296141503E-010
   50.5898750000000        -4.491363733826820E-010
   50.7029250000000        -4.381988727421874E-010
   50.8159750000000        -4.283099975491645E-010
   50.9290250000000        -4.202594877989658E-010
   51.0420750000000        -4.148023156734410E-010
   51.1551250000000        -4.126131754297992E-010
   51.2681750000000        -4.142514226147059E-010
   51.3812250000000        -4.201254688837065E-010
   51.4942750000000        -4.304580117383186E-010
   51.6073250000000        -4.452710657135669E-010
   51.7203750000000        -4.643605278128699E-010
   51.8334250000000        -4.872998356354914E-010
   51.9464750000000        -5.134380661208543E-010
   52.0595250000000        -5.419195895487434E-010
   52.1725750000000        -5.717065358033252E-010
   52.2856250000000        -6.016256240356687E-010
   52.3986750000000        -6.304051372359623E-010
   52.5117250000000        -6.567364713416435E-010
   52.6247750000000        -6.793325510148590E-010
   52.7378250000000        -6.969949980525253E-010
   52.8508750000000        -7.086740620773602E-010
   52.9639250000000        -7.135341708569594E-010
   53.0769750000000        -7.110108961755115E-010
   53.1900250000000        -7.008542731260151E-010
   53.3030750000000        -6.831652725082011E-010
   53.4161250000000        -6.584200198549464E-010
   53.5291750000000        -6.274662352934163E-010
   53.6422250000000        -5.915159924914512E-010
   53.7552750000000        -5.521055572319089E-010
   53.8683250000000        -5.110500493193890E-010
   53.9813750000000        -4.703712650947838E-010
   54.0944250000000        -4.322104162459077E-010
   54.2074750000000        -3.987325102461484E-010
   54.3205250000000        -3.720260254595226E-010
   54.4335750000000        -3.539824420255668E-010
   54.5466250000000        -3.461963752912265E-010
   54.6596750000000        -3.498568144111713E-010
   54.7727250000000        -3.656623311246223E-010
   54.8857750000000        -3.937423957670811E-010
   54.9988250000000        -4.336096787676962E-010
   55.1118750000000        -4.841355995769019E-010
   55.2249250000000        -5.435553232794448E-010
   55.3379750000000        -6.095077570473364E-010
   55.4510250000000        -6.791038383625483E-010
   55.5640750000000        -7.490334154149719E-010
   55.6771250000000        -8.156949047379372E-010
   55.7901750000000        -8.753558427786392E-010
   55.9032250000000        -9.243326156455402E-010
   56.0162750000000        -9.591799848833893E-010
   56.1293250000000        -9.768885414480438E-010
   56.2423750000000        -9.750772141349064E-010
   56.3554250000000        -9.521682981209400E-010
   56.4684750000000        -9.075418232650736E-010
   56.5815250000000        -8.416540377709895E-010
   56.6945750000000        -7.561120084692740E-010
   56.8076250000000        -6.537000746705616E-010
   56.9206750000000        -5.383484715845649E-010
   57.0337250000000        -4.150448783872667E-010
   57.1467750000000        -2.896800185840768E-010
   57.2598250000000        -1.688430290728927E-010
   57.3728750000000        -5.955622056796730E-011
   57.4859250000000         3.103249638995097E-011
   57.5989750000000         9.599395288302161E-011
   57.7120250000000         1.289814779817009E-010
   57.8250750000000         1.246023832053911E-010
   57.9381250000000         7.877913140171882E-011
   58.0511750000000        -1.092462493215054E-011
   58.1642250000000        -1.450138595266119E-010
   58.2772750000000        -3.218555640697531E-010
   58.3903250000000        -5.375371808615237E-010
   58.5033750000000        -7.858290146026020E-010
   58.6164250000000        -1.058255116260065E-009
   58.7294750000000        -1.344272288000098E-009
   58.8425250000000        -1.631565345278079E-009
   58.9555750000000        -1.906460008349940E-009
   59.0686250000000        -2.154426286293223E-009
   59.1816750000000        -2.360684576989571E-009
   59.2947250000000        -2.510869873027759E-009
   59.4077750000000        -2.591745056331776E-009
   59.5208250000000        -2.591928088502980E-009
   59.6338750000000        -2.502605059717968E-009
   59.7469250000000        -2.318187127255386E-009
   59.8599750000000        -2.036886597010013E-009
   59.9730250000000        -1.661171234215538E-009
   60.0860750000000        -1.198066964365040E-009
   60.1991250000000        -6.592844617466426E-010
   60.3121750000000        -6.114538866632747E-011
   60.4252250000000         5.757078158777095E-010
   60.5382750000000         1.226824710302723E-009
   60.6513250000000         1.864666794514894E-009
   60.7643750000000         2.459542045360187E-009
   60.8774250000000         2.980717728557175E-009
   60.9904750000000         3.397671805887316E-009
   61.1035250000000         3.681459399118805E-009
   61.2165750000000         3.806124444044666E-009
   61.3296250000000         3.750109454502420E-009
   61.4426750000000         3.497593844589100E-009
   61.5557250000000         3.039704286288201E-009
   61.6687750000000         2.375532609314558E-009
   61.7818250000000         1.512881447456793E-009
   61.8948750000000         4.687231697179511E-010
   62.0079250000000        -7.307238736424619E-010
   62.1209750000000        -2.050287014252912E-009
   62.2340250000000        -3.446550048626493E-009
   62.3470750000000        -4.868974516881634E-009
   62.4601250000000        -6.261416226503737E-009
   62.5731750000000        -7.564003178473528E-009
   62.6862250000000        -8.715328008430533E-009
   62.7992750000000        -9.654887850229691E-009
   62.9123250000000        -1.032566766954420E-008
   63.0253750000000        -1.067680896250666E-008
   63.1384250000000        -1.066620576606944E-008
   63.2514750000000        -1.026295690443560E-008
   63.3645250000000        -9.449538747464704E-009
   63.4775750000000        -8.223580367386604E-009
   63.5906250000000        -6.599159423751293E-009
   63.7036750000000        -4.607501415079367E-009
   63.8167250000000        -2.297029906175275E-009
   63.9297750000000         2.672941270287137E-010
   64.0428250000000         3.005355957334222E-009
   64.1558750000000         5.824004198225220E-009
   64.2689250000000         8.619850352283336E-009
   64.3819750000000         1.128268703454640E-008
   64.4950250000000         1.369943229107018E-008
   64.6080750000000         1.575845789310916E-008
   64.7211250000000         1.735416459378429E-008
   64.8341750000000         1.839161891961325E-008
   64.9472250000000         1.879106908643237E-008
   65.0602750000000         1.849214334773739E-008
   65.1733250000000         1.745753805248687E-008
   65.2863750000000         1.567600289626188E-008
   65.3994250000000         1.316446459794331E-008
   65.5124750000000         9.969141680268475E-009