 -0.847875000000000         1.864873848961105E-024
 -0.734825000000000         1.864392238618069E-024
 -0.621775000000000         1.851162882004839E-024
 -0.508725000000000         1.751748597677991E-024
 -0.395675000000000         1.242314882303305E-024
 -0.282625000000000        -8.452740245900889E-025
 -0.169575000000000        -8.035134339818651E-024
 -5.652500000000005E-002   -2.932657241773470E-023
  5.652499999999994E-002   -8.439742609842218E-023
  0.169575000000000        -2.105997204888291E-022
  0.282625000000000        -4.704361913831768E-022
  0.395675000000000        -9.577865127210168E-022
  0.508725000000000        -1.801392008069154E-021
  0.621775000000000        -3.165208210049182E-021
  0.734825000000000        -5.245774521485491E-021
  0.847875000000000        -8.267025109470103E-021
  0.960925000000000        -1.247241528930814E-020
   1.07397500000000        -1.811444477765585E-020
   1.18702500000000        -2.544186584858811E-020
   1.30007500000000        -3.468281138680063E-020
   1.41312500000000        -4.602480973456824E-020
   1.52617500000000        -5.959124935704680E-020
   1.63922500000000        -7.541449503161306E-020
   1.75227500000000        -9.340460463097335E-020
   1.86532500000000        -1.133153743398416E-019
   1.97837500000000        -1.347082526736032E-019
   2.09142500000000        -1.569127839019056E-019
   2.20447500000000        -1.789866457106107E-019
   2.31752500000000        -1.996752875783908E-019
   2.43057500000000        -2.173749554066966E-019
   2.54362500000000        -2.300940005578212E-019
   2.65667500000000        -2.354199398474995E-019
   2.76972500000000        -2.304926990404437E-019
   2.88277500000000        -2.119804200719727E-019
   2.99582500000000        -1.760669095966175E-019
   3.10887500000000        -1.184470085162658E-019
   3.22192500000000        -3.433088328576453E-020
   3.33497500000000         8.154510850371832E-020
   3.44802500000000         2.348921261899264E-019
   3.56107500000000         4.318308238915461E-019
   3.67412500000000         6.788514734592128E-019
   3.78717500000000         9.827562252037061E-019
   3.90022500000000         1.350602575156920E-018
   4.01327500000000         1.789627446297965E-018
   4.12632500000000         2.307182480356461E-018
   4.23937500000000         2.910654149051997E-018
   4.35242500000000         3.607391798038717E-018
   4.46547500000000         4.404633002157791E-018
   4.57852500000000         5.309432883653567E-018
   4.69157500000000         6.328604973632220E-018
   4.80462500000000         7.468666158832686E-018
   4.91767500000000         8.735792509514239E-018
   5.03072500000000         1.013578741168757E-017
   5.14377500000000         1.167405806950117E-017
   5.25682500000000         1.335560682246226E-017
   5.36987500000000         1.518503646413757E-017
   5.48292500000000         1.716655874543742E-017
   5.59597500000000         1.930402092376285E-017
   5.70902500000000         2.160093404891368E-017
   5.82207500000000         2.406050810048531E-017
   5.93512500000000         2.668568833225319E-017
   6.04817500000000         2.947919471846433E-017
   6.16122500000000         3.244355761472065E-017
   6.27427500000000         3.558114425874800E-017
   6.38732500000000         3.889417942053480E-017
   6.50037500000000         4.238476155320143E-017
   6.61342500000000         4.605486346808129E-017
   6.72647500000000         4.990631985619259E-017
   6.83952500000000         5.394080713711509E-017
   6.95257500000000         5.815981007222236E-017
   7.06562500000000         6.256457960563550E-017
   7.17867500000000         6.715607827156175E-017
   7.29172500000000         7.193493082479488E-017
   7.40477500000000         7.690136535514279E-017
   7.51782500000000         8.205515025213033E-017
   7.63087500000000         8.739554938994074E-017
   7.74392500000000         9.292127759306490E-017
   7.85697500000000         9.863046872351541E-017
   7.97002500000000         1.045206563965382E-016
   8.08307500000000         1.105887751514501E-016
   8.19612500000000         1.168311748362930E-016
   8.30917500000000         1.232436599657578E-016
   8.42222500000000         1.298215429801865E-016
   8.53527500000000         1.365597108208398E-016
   8.64832500000000         1.434527118660533E-016
   8.76137500000000         1.504948529546994E-016
   8.87442500000000         1.576803007510774E-016
   8.98747500000000         1.650031885157252E-016
   9.10052500000000         1.724577223402155E-016
   9.21357500000000         1.800382751938021E-016
   9.32662500000000         1.877394749834856E-016
   9.43967500000000         1.955562739255082E-016
   9.55272500000000         2.034840004814465E-016
   9.66577500000000         2.115183881990679E-016
   9.77882500000000         2.196555806944366E-016
   9.89187500000000         2.278921135668153E-016
   10.0049250000000         2.362248738234576E-016
   10.1179750000000         2.446510340557101E-016
   10.2310250000000         2.531679781648410E-016
   10.3440750000000         2.617732059401323E-016
   10.4571250000000         2.704642344708299E-016
   10.5701750000000         2.792384947326715E-016
   10.6832250000000         2.880932376180638E-016
   10.7962750000000         2.970254457889083E-016
   10.9093250000000         3.060317656600151E-016
   11.0223750000000         3.151084605863185E-016
   11.1354250000000         3.242513884040443E-016
   11.2484750000000         3.334560092132260E-016
   11.3615250000000         3.427174253498054E-016
   11.4745750000000         3.520304453655916E-016
   11.5876250000000         3.613896821997233E-016
   11.7006750000000         3.707896735381411E-016
   11.8137250000000         3.802250141692494E-016
   11.9267750000000         3.896905120087513E-016
   12.0398250000000         3.991813411529262E-016
   12.1528750000000         4.086931908497803E-016
   12.2659250000000         4.182224066357822E-016
   12.3789750000000         4.277661079173360E-016
   12.4920250000000         4.373222799024014E-016
   12.6050750000000         4.468898268538155E-016
   12.7181250000000         4.564685867066690E-016
   12.8311750000000         4.660593040183998E-016
   12.9442250000000         4.756635551880115E-016
   13.0572750000000         4.852836303376138E-016
   13.1703250000000         4.949223741620966E-016
   13.2833750000000         5.045829881072035E-016
   13.3964250000000         5.142688056956266E-016
   13.5094750000000         5.239830482631037E-016
   13.6225250000000         5.337285649179928E-016
   13.7355750000000         5.435075778135865E-016
   13.8486250000000         5.533214363343907E-016
   13.9616750000000         5.631703968411281E-016
   14.0747250000000         5.730534324240302E-016
   14.1877750000000         5.829680851834048E-016
   14.3008250000000         5.929103720444425E-016
   14.4138750000000         6.028747380356076E-016
   14.5269250000000         6.128540765449718E-016
   14.6399750000000         6.228398028618043E-016
   14.7530250000000         6.328219796309655E-016
   14.8660750000000         6.427895036881870E-016
   14.9791250000000         6.527303287299959E-016
   15.0921750000000         6.626317259677058E-016
   15.2052250000000         6.724805681155290E-016
   15.3182750000000         6.822636271402935E-016
   15.4313250000000         6.919678716748421E-016
   15.5443750000000         7.015807499430620E-016
   15.6574250000000         7.110904516994680E-016
   15.7704750000000         7.204861372545176E-016
   15.8835250000000         7.297581200910936E-016
   15.9965750000000         7.388980017862212E-016
   16.1096250000000         7.478987536101419E-016
   16.2226750000000         7.567547457460844E-016
   16.3357250000000         7.654617171644010E-016
   16.4487750000000         7.740167028095137E-016
   16.5618250000000         7.824179138987540E-016
   16.6748750000000         7.906645813761369E-016
   16.7879250000000         7.987567751795991E-016
   16.9009750000000         8.066952101428565E-016
   17.0140250000000         8.144810415061561E-016
   17.1270750000000         8.221156703510275E-016
   17.2401250000000         8.296005714393238E-016
   17.3531750000000         8.369371398605716E-016
   17.4662250000000         8.441265766837620E-016
   17.5792750000000         8.511698074256836E-016
   17.6923250000000         8.580674473245925E-016
   17.8053750000000         8.648198077432266E-016
   17.9184250000000         8.714269450636956E-016
   18.0314750000000         8.778887363881628E-016
   18.1445250000000         8.842050014117141E-016
   18.2575750000000         8.903756253585764E-016
   18.3706250000000         8.964007154040942E-016
   18.4836750000000         9.022807373761721E-016
   18.5967250000000         9.080166671754440E-016
   18.7097750000000         9.136101008037978E-016
   18.8228250000000         9.190633557005426E-016
   18.9358750000000         9.243795232142230E-016
   19.0489250000000         9.295624931309377E-016
   19.1619750000000         9.346169215903039E-016
   19.2750250000000         9.395481647594033E-016
   19.3880750000000         9.443621553189907E-016
   19.5011250000000         9.490652536903338E-016
   19.6141750000000         9.536640478464348E-016
   19.7272250000000         9.581651399637732E-016
   19.8402750000000         9.625749031291068E-016
   19.9533250000000         9.668992383628268E-016
   20.0663750000000         9.711433310103859E-016
   20.1794250000000         9.753114262161725E-016
   20.2924750000000         9.794066209029563E-016
   20.4055250000000         9.834306997021655E-016
   20.5185750000000         9.873840061069095E-016
   20.6316250000000         9.912653637972860E-016
   20.7446750000000         9.950720515410806E-016
   20.8577250000000         9.987998288249384E-016
   20.9707750000000         1.002443019241435E-015
   21.0838250000000         1.005994640862760E-015
   21.1968750000000         1.009446582447962E-015
   21.3099250000000         1.012789819787757E-015
   21.4229750000000         1.016014657783992E-015
   21.5360250000000         1.019110995897670E-015
   21.6490750000000         1.022068599263796E-015
   21.7621250000000         1.024877375382737E-015
   21.8751750000000         1.027527631113030E-015
   21.9882250000000         1.030010316046566E-015
   22.1012750000000         1.032317233365408E-015
   22.2143250000000         1.034441216424023E-015
   22.3273750000000         1.036376263127968E-015
   22.4404250000000         1.038117625595060E-015
   22.5534750000000         1.039661854336962E-015
   22.6665250000000         1.041006795864519E-015
   22.7795750000000         1.042151550108020E-015
   22.8926250000000         1.043096381688500E-015
   23.0056750000000         1.043842602821027E-015
   23.1187250000000         1.044392427276115E-015
   23.2317750000000         1.044748801094047E-015
   23.3448250000000         1.044915219228544E-015
   23.4578750000000         1.044895538341310E-015
   23.5709250000000         1.044693786787464E-015
   23.6839750000000         1.044313986710010E-015
   23.7970250000000         1.043759983274831E-015
   23.9100750000000         1.043035301664450E-015
   24.0231250000000         1.042143019096288E-015
   24.1361750000000         1.041085659320011E-015
   24.2492250000000         1.039865121867689E-015
   24.3622750000000         1.038482630526590E-015
   24.4753250000000         1.036938711091575E-015
   24.5883750000000         1.035233188772858E-015
   24.7014250000000         1.033365210364282E-015
   24.8144750000000         1.031333282453056E-015
   24.9275250000000         1.029135323227117E-015
   25.0405750000000         1.026768724500826E-015
   25.1536250000000         1.024230417650252E-015
   25.2666750000000         1.021516943508116E-015
   25.3797250000000         1.018624519629893E-015
   25.4927750000000         1.015549102921542E-015
   25.6058250000000         1.012286442886549E-015
   25.7188750000000         1.008832126133438E-015
   25.8319250000000         1.005181608900711E-015
   25.9449750000000         1.001330237061816E-015
   26.0580250000000         9.972732539041471E-016
   26.1710750000000         9.930057933501370E-016
   26.2841250000000         9.885228611889449E-016
   26.3971750000000         9.838193106366614E-016
   26.5102250000000         9.788898015764632E-016
   26.6232750000000         9.737287565170075E-016
   26.7363250000000         9.683303134716100E-016
   26.8493750000000         9.626882749790265E-016
   26.9624250000000         9.567960584528970E-016
   27.0754750000000         9.506466465224631E-016
   27.1885250000000         9.442325484214393E-016
   27.3015750000000         9.375457606907020E-016
   27.4146250000000         9.305777517192127E-016
   27.5276750000000         9.233194448319692E-016
   27.6407250000000         9.157612234850860E-016
   27.7537750000000         9.078929476483590E-016
   27.8668250000000         8.997039894508515E-016
   27.9798750000000         8.911832800977856E-016
   28.0929250000000         8.823193732360347E-016
   28.2059750000000         8.731005260322940E-016
   28.3190250000000         8.635147869448338E-016
   28.4320750000000         8.535500943440025E-016
   28.5451250000000         8.431943897192082E-016
   28.6581750000000         8.324357237512250E-016
   28.7712250000000         8.212623692429076E-016
   28.8842750000000         8.096629307269514E-016
   28.9973250000000         7.976264465659429E-016
   29.1103750000000         7.851424744309328E-016
   29.2234250000000         7.722011683740223E-016
   29.3364750000000         7.587933357434583E-016
   29.4495250000000         7.449104785999444E-016
   29.5625750000000         7.305448051343674E-016
   29.6756250000000         7.156892276697604E-016
   29.7886750000000         7.003373301574662E-016
   29.9017250000000         6.844833186864226E-016
   30.0147750000000         6.681219531881678E-016
   30.1278250000000         6.512484610497622E-016
   30.2408750000000         6.338584302525782E-016
   30.3539250000000         6.159477067675256E-016
   30.4669750000000         5.975122805134301E-016
   30.5800250000000         5.785481674405854E-016
   30.6930750000000         5.590513015433497E-016
   30.8061250000000         5.390174412565024E-016
   30.9191750000000         5.184420788420830E-016
   31.0322250000000         4.973203771821585E-016
   31.1452750000000         4.756471230623410E-016
   31.2583250000000         4.534167032856052E-016
   31.3713750000000         4.306231023592382E-016
   31.4844250000000         4.072599245655545E-016
   31.5974750000000         3.833204366695997E-016
   31.7105250000000         3.587976260592758E-016
   31.8235750000000         3.336842770643381E-016
   31.9366250000000         3.079730537467043E-016
   32.0496750000000         2.816565885617264E-016
   32.1627250000000         2.547275728872326E-016
   32.2757750000000         2.271788348430404E-016
   32.3888250000000         1.990034158201437E-016
   32.5018750000000         1.701946254187222E-016
   32.6149250000000         1.407460758357569E-016
   32.7279750000000         1.106516960937071E-016
   32.8410250000000         7.990572591064404E-017
   32.9540750000000         4.850268342485546E-017
   33.0671250000000         1.643730289113901E-017
   33.1801750000000        -1.629553437242671E-017
   33.2932250000000        -4.970088794986056E-017
   33.4062750000000        -8.378386900432810E-017
   33.5193250000000        -1.185497422624420E-016
   33.6323750000000        -1.540040345479943E-016
   33.7454250000000        -1.901526326302906E-016
   33.8584750000000        -2.270018727568266E-016
   33.9715250000000        -2.645586069037083E-016
   34.0845750000000        -3.028302424941812E-016
   34.1976250000000        -3.418247586949885E-016
   34.3106750000000        -3.815506863741150E-016
   34.4237250000000        -4.220170587102740E-016
   34.5367750000000        -4.632333286863298E-016
   34.6498250000000        -5.052092588376797E-016
   34.7628750000000        -5.479547821750798E-016
   34.8759250000000        -5.914798428873365E-016
   34.9889750000000        -6.357942214808235E-016
   35.1020250000000        -6.809073565705255E-016
   35.2150750000000        -7.268281607305446E-016
   35.3281250000000        -7.735648486804408E-016
   35.4411750000000        -8.211247788694388E-016
   35.5542250000000        -8.695143199329408E-016
   35.6672750000000        -9.187387468952190E-016
   35.7803250000000        -9.688021720816697E-016
   35.8933750000000        -1.019707511133035E-015
   36.0064250000000        -1.071456495628104E-015
   36.1194750000000        -1.124049717001505E-015
   36.2325250000000        -1.177486719946390E-015
   36.3455750000000        -1.231766120950288E-015
   36.4586250000000        -1.286885765663275E-015
   36.5716750000000        -1.342842907664498E-015
   36.6847250000000        -1.399634401365852E-015
   36.7977750000000        -1.457256910664377E-015
   36.9108250000000        -1.515707110528305E-015
   37.0238750000000        -1.574981891272459E-015
   37.1369250000000        -1.635078539838671E-015
   37.2499750000000        -1.695994901360445E-015
   37.3630250000000        -1.757729516973275E-015
   37.4760750000000        -1.820281728632502E-015
   37.5891250000000        -1.883651747017591E-015
   37.7021750000000        -1.947840688741225E-015
   37.8152250000000        -2.012850578859532E-015
   37.9282750000000        -2.078684319188236E-015
   38.0413250000000        -2.145345631440790E-015
   38.1543750000000        -2.212838980094500E-015
   38.2674250000000        -2.281169476569638E-015
   38.3804750000000        -2.350342774981601E-015
   38.4935250000000        -2.420364969017619E-015
   38.6065750000000        -2.491242491044480E-015
   38.7196250000000        -2.562982025202935E-015
   38.8326750000000        -2.635590440004844E-015
   38.9457250000000        -2.709074736806398E-015
   39.0587750000000        -2.783442025102523E-015
   39.1718250000000        -2.858699530157010E-015
   39.2848750000000        -2.934854615409254E-015
   39.3979250000000        -3.011914834294780E-015
   39.5109750000000        -3.089888003993170E-015
   39.6240250000000        -3.168782288599060E-015
   39.7370750000000        -3.248606292179935E-015
   39.8501250000000        -3.329369155942614E-015
   39.9631750000000        -3.411080646477309E-015
   40.0762250000000        -3.493751232712924E-015
   40.1892750000000        -3.577392144248881E-015
   40.3023250000000        -3.662015403263646E-015
   40.4153750000000        -3.747633821122735E-015
   40.5284250000000        -3.834260967542173E-015
   40.6414750000000        -3.921911102473161E-015
   40.7545250000000        -4.010599070626589E-015
   40.8675750000000        -4.100340168612698E-015
   40.9806250000000        -4.191149972754202E-015
   41.0936750000000        -4.283044156701603E-015
   41.2067250000000        -4.376038281643542E-015
   41.3197750000000        -4.470147584986777E-015
   41.4328250000000        -4.565386770198638E-015
   41.5458750000000        -4.661769808127609E-015
   41.6589250000000        -4.759309756321681E-015
   41.7719750000000        -4.858018609513010E-015
   41.8850250000000        -4.957907187050301E-015
   41.9980750000000        -5.058985063135751E-015
   42.1111250000000        -5.161260543466244E-015
   42.2241750000000        -5.264740693381128E-015
   42.3372250000000        -5.369431415500710E-015
   42.4502750000000        -5.475337574535062E-015
   42.5633250000000        -5.582463163101921E-015
   42.6763750000000        -5.690811507552904E-015
   42.7894250000000        -5.800385494762618E-015
   42.9024750000000        -5.911187820646487E-015
   43.0155250000000        -6.023221243200648E-015
   43.1285750000000        -6.136488829971539E-015
   43.2416250000000        -6.250994188330603E-015
   43.3546750000000        -6.366741666832416E-015
   43.4677250000000        -6.483736519503023E-015
   43.5807750000000        -6.601985023481734E-015
   43.6938250000000        -6.721494546929153E-015
   43.8068750000000        -6.842273560823532E-015
   43.9199250000000        -6.964331599476955E-015
   44.0329750000000        -7.087679166333180E-015
   44.1460250000000        -7.212327591707638E-015
   44.2590750000000        -7.338288852978577E-015
   44.3721250000000        -7.465575369033183E-015
   44.4851750000000        -7.594199773099226E-015
   44.5982250000000        -7.724174683143624E-015
   44.7112750000000        -7.855512485827834E-015
   44.8243250000000        -7.988225137954130E-015
   44.9373750000000        -8.122324009340025E-015
   45.0504250000000        -8.257819767897480E-015
   45.1634750000000        -8.394722322404184E-015
   45.2765250000000        -8.533040829001311E-015
   45.3895750000000        -8.672783755613360E-015
   45.5026250000000        -8.813959015688917E-015
   45.6156750000000        -8.956574155253786E-015
   45.7287250000000        -9.100636588926779E-015
   45.8417750000000        -9.246153878809105E-015
   45.9548250000000        -9.393134034758507E-015
   46.0678750000000        -9.541585822600363E-015
   46.1809250000000        -9.691519064620228E-015
   46.2939750000000        -9.842944909217263E-015
   46.4070250000000        -9.995876056291176E-015
   46.5200750000000        -1.015032692064245E-014
   46.6331250000000        -1.030631372483280E-014
   46.7461750000000        -1.046385449931517E-014
   46.8592250000000        -1.062296899954513E-014
   46.9722750000000        -1.078367852229365E-014
   47.0853250000000        -1.094600564410850E-014
   47.1983750000000        -1.110997386789147E-014
   47.3114250000000        -1.127560721325181E-014
   47.4244750000000        -1.144292975473000E-014
   47.5375250000000        -1.161196513105402E-014
   47.6505750000000        -1.178273606139506E-014
   47.7636250000000        -1.195526387399716E-014
   47.8766750000000        -1.212956809592084E-014
   47.9897250000000        -1.230566611272504E-014
   48.1027750000000        -1.248357292511581E-014
   48.2158250000000        -1.266330102223906E-014
   48.3288750000000        -1.284486037920954E-014
   48.4419250000000        -1.302825859253027E-014
   48.5549750000000        -1.321350113909319E-014
   48.6680250000000        -1.340059176205806E-014
   48.7810750000000        -1.358953296096044E-014
   48.8941250000000        -1.378032656150153E-014
   49.0071750000000        -1.397297433126934E-014
   49.1202250000000        -1.416747861112354E-014
   49.2332750000000        -1.436384291773005E-014
   49.3463250000000        -1.456207247954899E-014
   49.4593750000000        -1.476217466158034E-014
   49.5724250000000        -1.496415924604520E-014
   49.6854750000000        -1.516803853526006E-014
   49.7985250000000        -1.537382725242798E-014
   49.9115750000000        -1.558154222704049E-014
   50.0246250000000        -1.579120186398847E-014
   50.1376750000000        -1.600282540629859E-014
   50.2507250000000        -1.621643201706810E-014
   50.3637750000000        -1.643203971535805E-014
   50.4768250000000        -1.664966422199040E-014
   50.5898750000000        -1.686931777675698E-014
   50.7029250000000        -1.709100798937633E-014
   50.8159750000000        -1.731473681307034E-014
   50.9290250000000        -1.754049970520160E-014
   51.0420750000000        -1.776828506991939E-014
   51.1551250000000        -1.799807402935774E-014
   51.2681750000000        -1.822984060100033E-014
   51.3812250000000        -1.846355231364525E-014
   51.4942750000000        -1.869917128794313E-014
   51.6073250000000        -1.893665579261247E-014
   51.7203750000000        -1.917596222810149E-014
   51.8334250000000        -1.941704751569858E-014
   51.9464750000000        -1.965987178713630E-014
   52.0595250000000        -1.990440128755985E-014
   52.1725750000000        -2.015061135714419E-014
   52.2856250000000        -2.039848935319872E-014
   52.3986750000000        -2.064803733357413E-014
   52.5117250000000        -2.089927435725533E-014
   52.6247750000000        -2.115223822042365E-014
   52.7378250000000        -2.140698647638087E-014
   52.8508750000000        -2.166359659483690E-014
   52.9639250000000        -2.192216516140764E-014
   53.0769750000000        -2.218280603206438E-014
   53.1900250000000        -2.244564740912594E-014
   53.3030750000000        -2.271082786553709E-014
   53.4161250000000        -2.297849138598074E-014
   53.5291750000000        -2.324878154432889E-014
   53.6422250000000        -2.352183501795237E-014
   53.7552750000000        -2.379777466381573E-014
   53.8683250000000        -2.407670245293337E-014
   53.9813750000000        -2.435869257479052E-014
   54.0944250000000        -2.464378506873097E-014
   54.2074750000000        -2.493198035183642E-014
   54.3205250000000        -2.522323500210694E-014
   54.4335750000000        -2.551745912484363E-014
   54.5466250000000        -2.581451562657413E-014
   54.6596750000000        -2.611422162392624E-014
   54.7727250000000        -2.641635217319997E-014
   54.8857750000000        -2.672064638559035E-014
   54.9988250000000        -2.702681592219639E-014
   55.1118750000000        -2.733455572477094E-014
   55.2249250000000        -2.764355673351606E-014
   55.3379750000000        -2.795352022102348E-014
   55.4510250000000        -2.826417325817963E-014
   55.5640750000000        -2.857528473064432E-014
   55.6771250000000        -2.888668122622523E-014
   55.7901750000000        -2.919826206712626E-014
   55.9032250000000        -2.951001271085693E-014
   56.0162750000000        -2.982201574002799E-014
   56.1293250000000        -3.013445869754157E-014
   56.2423750000000        -3.044763808508249E-014
   56.3554250000000        -3.076195893896953E-014
   56.4684750000000        -3.107792955241362E-014
   56.5815250000000        -3.139615106955849E-014
   56.6945750000000        -3.171730188442544E-014
   56.8076250000000        -3.204211700331744E-014
   56.9206750000000        -3.237136276021296E-014
   57.0337250000000        -3.270580752598330E-014
   57.1467750000000        -3.304618927978893E-014
   57.2598250000000        -3.339318115277740E-014
   57.3728750000000        -3.374735622121695E-014
   57.4859250000000        -3.410915301180636E-014
   57.5989750000000        -3.447884327173577E-014
   57.7120250000000        -3.485650361940270E-014
   57.8250750000000        -3.524199267069020E-014
   57.9381250000000        -3.563493515489645E-014
   58.0511750000000        -3.603471437692171E-014
   58.1642250000000        -3.644047415087399E-014
   58.2772750000000        -3.685113104152079E-014
   58.3903250000000        -3.726539736489190E-014
   58.5033750000000        -3.768181500984608E-014
   58.6164250000000        -3.809879968224898E-014
   58.7294750000000        -3.851469468160221E-014
   58.8425250000000        -3.892783285509708E-014
   58.9555750000000        -3.933660490262462E-014
   59.0686250000000        -3.973953175830216E-014
   59.1816750000000        -4.013533843139605E-014
   59.2947250000000        -4.052302635669023E-014
   59.4077750000000        -4.090194113389296E-014
   59.5208250000000        -4.127183243663688E-014
   59.6338750000000        -4.163290291476744E-014
   59.7469250000000        -4.198584308904540E-014
   59.8599750000000        -4.233184956372535E-014
   59.9730250000000        -4.267262432546924E-014
   60.0860750000000        -4.301035349172482E-014
   60.1991250000000        -4.334766457088281E-014
   60.3121750000000        -4.368756209409778E-014
   60.4252250000000        -4.403334234937864E-014
   60.5382750000000        -4.438848886668649E-014
   60.6513250000000        -4.475655122998529E-014
   60.7643750000000        -4.514101065526066E-014
   60.8774250000000        -4.554513662582311E-014
   60.9904750000000        -4.597183958215035E-014
   61.1035250000000        -4.642352521186366E-014
   61.2165750000000        -4.690195630495562E-014
   61.3296250000000        -4.740812829339181E-014
   61.4426750000000        -4.794216455315481E-014
   61.5557250000000        -4.850323722662744E-014
   61.6687750000000        -4.908951878097276E-014
   61.7818250000000        -4.969816870724533E-014
   61.8948750000000        -5.032535868434615E-014
   62.0079250000000        -5.096633832103783E-014
   62.1209750000000        -5.161554208610578E-014
   62.2340250000000        -5.226673651482964E-014
   62.3470750000000        -5.291320509361397E-014
   62.4601250000000        -5.354796655142825E-014
   62.5731750000000        -5.416402066370518E-014
   62.6862250000000        -5.475461415211527E-014
   62.7992750000000        -5.531351793516551E-014
   62.9123250000000        -5.583530587705824E-014
   63.0253750000000        -5.631562444764428E-014
   63.1384250000000        -5.675144222445095E-014
   63.2514750000000        -5.714126821932299E-014
   63.3645250000000        -5.748532837739695E-014
   63.4775750000000        -5.778569046771475E-014
   63.5906250000000        -5.804632889302450E-014
   63.7036750000000        -5.827312263123965E-014
   63.8167250000000        -5.847378163524086E-014
   63.9297750000000        -5.865769941470118E-014
   64.0428250000000        -5.883573218627524E-014
   64.1558750000000        -5.901990778272366E-014
   64.2689250000000        -5.922307040760034E-014
   64.3819750000000        -5.945847013659666E-014
   64.4950250000000        -5.973930873831963E-014
   64.6080750000000        -6.007825579542894E-014
   64.7211250000000        -6.048695109860278E-014
   64.8341750000000        -6.097551083797935E-014
   64.9472250000000        -6.155205606532928E-014
   65.0602750000000        -6.222228222475487E-014
   65.1733250000000        -6.298908817819813E-014
   65.2863750000000        -6.385228206644254E-014
   65.3994250000000        -6.480837953555801E-014
   65.5124750000000        -6.585050737938951E-014