 -0.847875000000000         1.312740452178204E-023
 -0.734825000000000        -2.011244017714155E-017
 -0.621775000000000        -1.416191065955958E-016
 -0.508725000000000        -6.816600610979022E-016
 -0.395675000000000        -2.645393999177005E-015
 -0.282625000000000        -8.626196305427286E-015
 -0.169575000000000        -2.408950303551372E-014
 -5.652500000000005E-002   -5.847413037500976E-014
  5.652499999999994E-002   -1.252443018869155E-013
  0.169575000000000        -2.405136031384332E-013
  0.282625000000000        -4.209070518788966E-013
  0.395675000000000        -6.819656514097248E-013
  0.508725000000000        -1.037868649796299E-012
  0.621775000000000        -1.501924576159062E-012
  0.734825000000000        -2.087104024009608E-012
  0.847875000000000        -2.806099389331463E-012
  0.960925000000000        -3.670552334295449E-012
   1.07397500000000        -4.690647927155941E-012
   1.18702500000000        -5.873221890598353E-012
   1.30007500000000        -7.221049612058980E-012
   1.41312500000000        -8.731730603207027E-012
   1.52617500000000        -1.039625411132535E-011
   1.63922500000000        -1.219758802467302E-011
   1.75227500000000        -1.411148368692242E-011
   1.86532500000000        -1.610430648663768E-011
   1.97837500000000        -1.813299668778568E-011
   2.09142500000000        -2.014584458107229E-011
   2.20447500000000        -2.208235253768719E-011
   2.31752500000000        -2.387482596436534E-011
   2.43057500000000        -2.544857338094620E-011
   2.54362500000000        -2.672374510863395E-011
   2.65667500000000        -2.761829433053287E-011
   2.76972500000000        -2.804915253890888E-011
   2.88277500000000        -2.793529246091005E-011
   2.99582500000000        -2.720233702216145E-011
   3.10887500000000        -2.578129012501644E-011
   3.22192500000000        -2.361402955917887E-011
   3.33497500000000        -2.065532230389242E-011
   3.44802500000000        -1.687894266051068E-011
   3.56107500000000        -1.226828156867083E-011
   3.67412500000000        -6.832631928717399E-012
   3.78717500000000        -5.931742654061452E-013
   3.90022500000000         6.399796019732856E-012
   4.01327500000000         1.409026934807628E-011
   4.12632500000000         2.239826289613689E-011
   4.23937500000000         3.123096537126534E-011
   4.35242500000000         4.048435502108622E-011
   4.46547500000000         5.004542068443599E-011
   4.57852500000000         5.980268009649287E-011
   4.69157500000000         6.964101131252840E-011
   4.80462500000000         7.944859720143118E-011
   4.91767500000000         8.912582931402061E-011
   5.03072500000000         9.858162275547913E-011
   5.14377500000000         1.077425813240736E-010
   5.25682500000000         1.165556820151939E-010
   5.36987500000000         1.249802025909390E-010
   5.48292500000000         1.329991844413514E-010
   5.59597500000000         1.406126527064944E-010
   5.70902500000000         1.478363821932751E-010
   5.82207500000000         1.547035637477574E-010
   5.93512500000000         1.612508385042564E-010
   6.04817500000000         1.675245157535793E-010
   6.16122500000000         1.735688353405032E-010
   6.27427500000000         1.794240469490534E-010
   6.38732500000000         1.851186112771250E-010
   6.50037500000000         1.906653393697842E-010
   6.61342500000000         1.960575819712622E-010
   6.72647500000000         2.012647843813511E-010
   6.83952500000000         2.062319688118585E-010
   6.95257500000000         2.108760316126689E-010
   7.06562500000000         2.150902344649101E-010
   7.17867500000000         2.187469137189579E-010
   7.29172500000000         2.216976490220086E-010
   7.40477500000000         2.237801517772661E-010
   7.51782500000000         2.248283943642200E-010
   7.63087500000000         2.246784577710472E-010
   7.74392500000000         2.231704819700213E-010
   7.85697500000000         2.201717503605996E-010
   7.97002500000000         2.155676033409827E-010
   8.08307500000000         2.092840084222170E-010
   8.19612500000000         2.012862381624627E-010
   8.30917500000000         1.915819363309254E-010
   8.42222500000000         1.802291417341962E-010
   8.53527500000000         1.673338771545737E-010
   8.64832500000000         1.530515216102416E-010
   8.76137500000000         1.375786347325188E-010
   8.87442500000000         1.211525789685221E-010
   8.98747500000000         1.040388146114880E-010
   9.10052500000000         8.652125417243344E-011
   9.21357500000000         6.889528018996772E-011
   9.32662500000000         5.145215110845578E-011
   9.43967500000000         3.446850306656950E-011
   9.55272500000000         1.819520800989408E-011
   9.66577500000000         2.846935606566641E-012
   9.77882500000000        -1.141027224165201E-011
   9.89187500000000        -2.445672010917470E-011
   10.0049250000000        -3.623647214631999E-011
   10.1179750000000        -4.674572678163007E-011
   10.2310250000000        -5.604205294530221E-011
   10.3440750000000        -6.423203923344181E-011
   10.4571250000000        -7.147320479985722E-011
   10.5701750000000        -7.795518383210482E-011
   10.6832250000000        -8.389536024639825E-011
   10.7962750000000        -8.952437289571231E-011
   10.9093250000000        -9.507348685863948E-011
   11.0223750000000        -1.007573160037407E-010
   11.1354250000000        -1.067697856978517E-010
   11.2484750000000        -1.132645414188843E-010
   11.3615250000000        -1.203494436992313E-010
   11.4745750000000        -1.280826690746110E-010
   11.5876250000000        -1.364629608687918E-010
   11.7006750000000        -1.454397860863448E-010
   11.8137250000000        -1.549008948721636E-010
   11.9267750000000        -1.646983828542932E-010
   12.0398250000000        -1.746375125632678E-010
   12.1528750000000        -1.845050081041505E-010
   12.2659250000000        -1.940721076845059E-010
   12.3789750000000        -2.031139842600502E-010
   12.4920250000000        -2.114259016035562E-010
   12.6050750000000        -2.188300407657769E-010
   12.7181250000000        -2.251988648878635E-010
   12.8311750000000        -2.304595453778036E-010
   12.9442250000000        -2.346020350195428E-010
   13.0572750000000        -2.376870742870644E-010
   13.1703250000000        -2.398453896735806E-010
   13.2833750000000        -2.412753622067390E-010
   13.3964250000000        -2.422347026147614E-010
   13.5094750000000        -2.430367557234477E-010
   13.6225250000000        -2.440279344827093E-010
   13.7355750000000        -2.455798214389715E-010
   13.8486250000000        -2.480684028480691E-010
   13.9616750000000        -2.518563563631001E-010
   14.0747250000000        -2.572755921955633E-010
   14.1877750000000        -2.646060676696092E-010
   14.3008250000000        -2.740700595175534E-010
   14.4138750000000        -2.858057094774603E-010
   14.5269250000000        -2.998685647936053E-010
   14.6399750000000        -3.162251460687462E-010
   14.7530250000000        -3.347455065807069E-010
   14.8660750000000        -3.552137200970361E-010
   14.9791250000000        -3.773305019655626E-010
   15.0921750000000        -4.007238955831424E-010
   15.2052250000000        -4.249701011341627E-010
   15.3182750000000        -4.496030664684348E-010
   15.4313250000000        -4.741382139128711E-010
   15.5443750000000        -4.980894091212601E-010
   15.6574250000000        -5.209892373709617E-010
   15.7704750000000        -5.424074622354799E-010
   15.8835250000000        -5.619730848457549E-010
   15.9965750000000        -5.793737986063564E-010
   16.1096250000000        -5.943825777670286E-010
   16.2226750000000        -6.068548582325133E-010
   16.3357250000000        -6.167303202349377E-010
   16.4487750000000        -6.240360583375521E-010
   16.5618250000000        -6.288809621326451E-010
   16.6748750000000        -6.314383952450351E-010
   16.7879250000000        -6.319430394645336E-010
   16.9009750000000        -6.306762321328914E-010
   17.0140250000000        -6.279417603863407E-010
   17.1270750000000        -6.240570545236662E-010
   17.2401250000000        -6.193345365058918E-010
   17.3531750000000        -6.140658639916195E-010
   17.4662250000000        -6.085108639302799E-010
   17.5792750000000        -6.028851999405792E-010
   17.6923250000000        -5.973515691773296E-010
   17.8053750000000        -5.920187943025862E-010
   17.9184250000000        -5.869390162487472E-010
   18.0314750000000        -5.821070771412984E-010
   18.1445250000000        -5.774768961627365E-010
   18.2575750000000        -5.729509641958011E-010
   18.3706250000000        -5.684147022021471E-010
   18.4836750000000        -5.637247757088083E-010
   18.5967250000000        -5.587419376229215E-010
   18.7097750000000        -5.533282044239671E-010
   18.8228250000000        -5.473687684809267E-010
   18.9358750000000        -5.407763604355070E-010
   19.0489250000000        -5.335075541428235E-010
   19.1619750000000        -5.255554325402727E-010
   19.2750250000000        -5.169725609082495E-010
   19.3880750000000        -5.078503604651507E-010
   19.5011250000000        -4.983375799894559E-010
   19.6141750000000        -4.886179528100934E-010
   19.7272250000000        -4.789176678565633E-010
   19.8402750000000        -4.694851434047730E-010
   19.9533250000000        -4.605873223404907E-010
   20.0663750000000        -4.524976480053229E-010
   20.1794250000000        -4.454827984881389E-010
   20.2924750000000        -4.397955200275362E-010
   20.4055250000000        -4.356569404006658E-010
   20.5185750000000        -4.332609710495587E-010
   20.6316250000000        -4.327525209982619E-010
   20.7446750000000        -4.342347415829115E-010
   20.8577250000000        -4.377594224477044E-010
   20.9707750000000        -4.433274213083004E-010
   21.0838250000000        -4.508916099444699E-010
   21.1968750000000        -4.603607741739810E-010
   21.3099250000000        -4.716026033531319E-010
   21.4229750000000        -4.844481108776835E-010
   21.5360250000000        -4.987058534418310E-010
   21.6490750000000        -5.141595761615924E-010
   21.7621250000000        -5.305849022831388E-010
   21.8751750000000        -5.477507120262206E-010
   21.9882250000000        -5.654263235959639E-010
   22.1012750000000        -5.833908165167318E-010
   22.2143250000000        -6.014348756374483E-010
   22.3273750000000        -6.193634252974578E-010
   22.4404250000000        -6.370017595805613E-010
   22.5534750000000        -6.541943173755799E-010
   22.6665250000000        -6.708069312760033E-010
   22.7795750000000        -6.867270095041410E-010
   22.8926250000000        -7.018588020415334E-010
   23.0056750000000        -7.161259367892212E-010
   23.1187250000000        -7.294720534173478E-010
   23.2317750000000        -7.418541277238080E-010
   23.3448250000000        -7.532448433464686E-010
   23.4578750000000        -7.636293476162981E-010
   23.5709250000000        -7.730095291731035E-010
   23.6839750000000        -7.813978247605564E-010
   23.7970250000000        -7.888163360325131E-010
   23.9100750000000        -7.953056929125527E-010
   24.0231250000000        -8.009167161935831E-010
   24.1361750000000        -8.057136795809939E-010
   24.2492250000000        -8.097761879161375E-010
   24.3622750000000        -8.131912667421673E-010
   24.4753250000000        -8.160662190643127E-010
   24.5883750000000        -8.185156219396624E-010
   24.7014250000000        -8.206644235057910E-010
   24.8144750000000        -8.226458071630548E-010
   24.9275250000000        -8.245994560357589E-010
   25.0405750000000        -8.266696071222658E-010
   25.1536250000000        -8.289990121213294E-010
   25.2666750000000        -8.317283918366520E-010
   25.3797250000000        -8.349940293900771E-010
   25.4927750000000        -8.389232257037934E-010
   25.6058250000000        -8.436342281012430E-010
   25.7188750000000        -8.492327925055927E-010
   25.8319250000000        -8.558116673219478E-010
   25.9449750000000        -8.634497525611905E-010
   26.0580250000000        -8.722138906412858E-010
   26.1710750000000        -8.821573842130178E-010
   26.2841250000000        -8.933191614733517E-010
   26.3971750000000        -9.057308672689600E-010
   26.5102250000000        -9.194146751306073E-010
   26.6232750000000        -9.343837334160736E-010
   26.7363250000000        -9.506471176437733E-010
   26.8493750000000        -9.682057961420807E-010
   26.9624250000000        -9.870599578880060E-010
   27.0754750000000        -1.007202355412271E-009
   27.1885250000000        -1.028624659001661E-009
   27.3015750000000        -1.051303174899036E-009
   27.4146250000000        -1.075216643347386E-009
   27.5276750000000        -1.100323315960876E-009
   27.6407250000000        -1.126572994541520E-009
   27.7537750000000        -1.153896650953314E-009
   27.8668250000000        -1.182205788761902E-009
   27.9798750000000        -1.211391153580362E-009
   28.0929250000000        -1.241317484647359E-009
   28.2059750000000        -1.271827512963224E-009
   28.3190250000000        -1.302739128812538E-009
   28.4320750000000        -1.333845494453954E-009
   28.5451250000000        -1.364919958092144E-009
   28.6581750000000        -1.395721735693634E-009
   28.7712250000000        -1.425994991888940E-009
   28.8842750000000        -1.455479914310663E-009
   28.9973250000000        -1.483921037445693E-009
   29.1103750000000        -1.511068335876620E-009
   29.2234250000000        -1.536692652032130E-009
   29.3364750000000        -1.560584467251672E-009
   29.4495250000000        -1.582574113044682E-009
   29.5625750000000        -1.602522275876143E-009
   29.6756250000000        -1.620339696004365E-009
   29.7886750000000        -1.635979445271068E-009
   29.9017250000000        -1.649446177952486E-009
   30.0147750000000        -1.660792977872022E-009
   30.1278250000000        -1.670122057304982E-009
   30.2408750000000        -1.677576078828091E-009
   30.3539250000000        -1.683336110930579E-009
   30.4669750000000        -1.687621280176235E-009
   30.5800250000000        -1.690665977301487E-009
   30.6930750000000        -1.692722989193966E-009
   30.8061250000000        -1.694053480309675E-009
   30.9191750000000        -1.694909541255171E-009
   31.0322250000000        -1.695535539033245E-009
   31.1452750000000        -1.696153762179463E-009
   31.2583250000000        -1.696962758272322E-009
   31.3713750000000        -1.698126444176048E-009
   31.4844250000000        -1.699773806299013E-009
   31.5974750000000        -1.702000501760608E-009
   31.7105250000000        -1.704859302371967E-009
   31.8235750000000        -1.708374781389537E-009
   31.9366250000000        -1.712534900889689E-009
   32.0496750000000        -1.717302618779478E-009
   32.1627250000000        -1.722619855587197E-009
   32.2757750000000        -1.728411854277883E-009
   32.3888250000000        -1.734595796978436E-009
   32.5018750000000        -1.741088091278351E-009
   32.6149250000000        -1.747808132310565E-009
   32.7279750000000        -1.754680567887775E-009
   32.8410250000000        -1.761648220796721E-009
   32.9540750000000        -1.768668054236419E-009
   33.0671250000000        -1.775712350180712E-009
   33.1801750000000        -1.782770009861759E-009
   33.2932250000000        -1.789850692060365E-009
   33.4062750000000        -1.796970044531946E-009
   33.5193250000000        -1.804160644511848E-009
   33.6323750000000        -1.811456630810974E-009
   33.7454250000000        -1.818895673216585E-009
   33.8584750000000        -1.826511360685500E-009
   33.9715250000000        -1.834325766311377E-009
   34.0845750000000        -1.842354529032479E-009
   34.1976250000000        -1.850591783100537E-009
   34.3106750000000        -1.859018210213822E-009
   34.4237250000000        -1.867594727292673E-009
   34.5367750000000        -1.876261409025149E-009
   34.6498250000000        -1.884942363324293E-009
   34.7628750000000        -1.893547120307587E-009
   34.8759250000000        -1.901972437872200E-009
   34.9889750000000        -1.910111620977556E-009
   35.1020250000000        -1.917853536950777E-009
   35.2150750000000        -1.925093739735427E-009
   35.3281250000000        -1.931735909416554E-009
   35.4411750000000        -1.937701952111412E-009
   35.5542250000000        -1.942934450644804E-009
   35.6672750000000        -1.947401044090074E-009
   35.7803250000000        -1.951098063782344E-009
   35.8933750000000        -1.954053689780777E-009
   36.0064250000000        -1.956327818621571E-009
   36.1194750000000        -1.958012805956453E-009
   36.2325250000000        -1.959232373680199E-009
   36.3455750000000        -1.960135388571525E-009
   36.4586250000000        -1.960895811483976E-009
   36.5716750000000        -1.961702038082604E-009
   36.6847250000000        -1.962760960349392E-009
   36.7977750000000        -1.964276157606034E-009
   36.9108250000000        -1.966456744947509E-009
   37.0238750000000        -1.969500455536804E-009
   37.1369250000000        -1.973588698871112E-009
   37.2499750000000        -1.978883533078214E-009
   37.3630250000000        -1.985521151395706E-009
   37.4760750000000        -1.993601363864184E-009
   37.5891250000000        -2.003196743403618E-009
   37.7021750000000        -2.014336720781795E-009
   37.8152250000000        -2.027014639092647E-009
   37.9282750000000        -2.041187372297646E-009
   38.0413250000000        -2.056775236461103E-009
   38.1543750000000        -2.073667516161293E-009
   38.2674250000000        -2.091722147918332E-009
   38.3804750000000        -2.110776533876783E-009
   38.4935250000000        -2.130644807652681E-009
   38.6065750000000        -2.151138311822256E-009
   38.7196250000000        -2.172057418896301E-009
   38.8326750000000        -2.193205700161625E-009
   38.9457250000000        -2.214395162873371E-009
   39.0587750000000        -2.235457666752653E-009
   39.1718250000000        -2.256240642728891E-009
   39.2848750000000        -2.276618823208510E-009
   39.3979250000000        -2.296497746516039E-009
   39.5109750000000        -2.315814619976315E-009
   39.6240250000000        -2.334541105586382E-009
   39.7370750000000        -2.352680859460187E-009
   39.8501250000000        -2.370272036867416E-009
   39.9631750000000        -2.387381508250017E-009
   40.0762250000000        -2.404102754367012E-009
   40.1892750000000        -2.420550791571830E-009
   40.3023250000000        -2.436856391675612E-009
   40.4153750000000        -2.453160672214750E-009
   40.5284250000000        -2.469604708799006E-009
   40.6414750000000        -2.486328005470965E-009
   40.7545250000000        -2.503459868544840E-009
   40.8675750000000        -2.521110916375546E-009
   40.9806250000000        -2.539371087984824E-009
   41.0936750000000        -2.558303122608946E-009
   41.2067250000000        -2.577939562914609E-009
   41.3197750000000        -2.598286340240961E-009
   41.4328250000000        -2.619312992142748E-009
   41.5458750000000        -2.640959655311430E-009
   41.6589250000000        -2.663140546219765E-009
   41.7719750000000        -2.685745781274572E-009
   41.8850250000000        -2.708647632947289E-009
   41.9980750000000        -2.731706034430286E-009
   42.1111250000000        -2.754776523382520E-009
   42.2241750000000        -2.777715729264101E-009
   42.3372250000000        -2.800390015759090E-009
   42.4502750000000        -2.822677342986430E-009
   42.5633250000000        -2.844485492983281E-009
   42.6763750000000        -2.865738469697812E-009
   42.7894250000000        -2.886395043173265E-009
   42.9024750000000        -2.906444017332152E-009
   43.0155250000000        -2.925907372040195E-009
   43.1285750000000        -2.944832469831270E-009
   43.2416250000000        -2.963298887409269E-009
   43.3546750000000        -2.981405835599615E-009
   43.4677250000000        -2.999266375224109E-009
   43.5807750000000        -3.017007809417922E-009
   43.6938250000000        -3.034755434541650E-009
   43.8068750000000        -3.052632536490715E-009
   43.9199250000000        -3.070746068712665E-009
   44.0329750000000        -3.089183793890171E-009
   44.1460250000000        -3.108008458291259E-009
   44.2590750000000        -3.127248528136740E-009
   44.3721250000000        -3.146904757981676E-009
   44.4851750000000        -3.166937129815673E-009
   44.5982250000000        -3.187275903870668E-009
   44.7112750000000        -3.207818928753843E-009
   44.8243250000000        -3.228435672015242E-009
   44.9373750000000        -3.248974175780440E-009
   45.0504250000000        -3.269271973219130E-009
   45.1634750000000        -3.289158985812048E-009
   45.2765250000000        -3.308466376316280E-009
   45.3895750000000        -3.327041210413672E-009
   45.5026250000000        -3.344746941131438E-009
   45.6156750000000        -3.361474488618035E-009
   45.7287250000000        -3.377148549361047E-009
   45.8417750000000        -3.391730251568743E-009
   45.9548250000000        -3.405222829342013E-009
   46.0678750000000        -3.417666513511012E-009
   46.1809250000000        -3.429140858311236E-009
   46.2939750000000        -3.439760435453252E-009
   46.4070250000000        -3.449667530972281E-009
   46.5200750000000        -3.459026759632674E-009
   46.6331250000000        -3.468014393923697E-009
   46.7461750000000        -3.476812439534485E-009
   46.8592250000000        -3.485596071394697E-009
   46.9722750000000        -3.494526516848221E-009
   47.0853250000000        -3.503740440756875E-009
   47.1983750000000        -3.513346770936178E-009
   47.3114250000000        -3.523416141074574E-009
   47.4244750000000        -3.533980410480798E-009
   47.5375250000000        -3.545032904695705E-009
   47.6505750000000        -3.556523248674090E-009
   47.7636250000000        -3.568366070844116E-009
   47.8766750000000        -3.580443111250219E-009
   47.9897250000000        -3.592611700611026E-009
   48.1027750000000        -3.604713281467029E-009
   48.2158250000000        -3.616578455318733E-009
   48.3288750000000        -3.628046423364116E-009
   48.4419250000000        -3.638964114543425E-009
   48.5549750000000        -3.649203158539073E-009
   48.6680250000000        -3.658665654031242E-009
   48.7810750000000        -3.667292839966148E-009
   48.8941250000000        -3.675068053454183E-009
   49.0071750000000        -3.682019293546893E-009
   49.1202250000000        -3.688223414644086E-009
   49.2332750000000        -3.693802609107670E-009
   49.3463250000000        -3.698918571034326E-009
   49.4593750000000        -3.703768631366807E-009
   49.5724250000000        -3.708578805163075E-009
   49.6854750000000        -3.713589572110800E-009
   49.7985250000000        -3.719049487565626E-009
   49.9115750000000        -3.725205438753850E-009
   50.0246250000000        -3.732285994444926E-009
   50.1376750000000        -3.740497935717034E-009
   50.2507250000000        -3.750008722597413E-009
   50.3637750000000        -3.760945665413902E-009
   50.4768250000000        -3.773392761167253E-009
   50.5898750000000        -3.787372989581932E-009
   50.7029250000000        -3.802863036491758E-009
   50.8159750000000        -3.819779707667564E-009
   50.9290250000000        -3.838001283999559E-009
   51.0420750000000        -3.857352309235964E-009
   51.1551250000000        -3.877626952108142E-009
   51.2681750000000        -3.898589002771574E-009
   51.3812250000000        -3.919985891819859E-009
   51.4942750000000        -3.941562570145473E-009
   51.6073250000000        -3.963059168666759E-009
   51.7203750000000        -3.984240894447126E-009
   51.8334250000000        -4.004891272621842E-009
   51.9464750000000        -4.024827380423579E-009
   52.0595250000000        -4.043907746822844E-009
   52.1725750000000        -4.062034589090074E-009
   52.2856250000000        -4.079156618820571E-009
   52.3986750000000        -4.095274083141344E-009
   52.5117250000000        -4.110432479845424E-009
   52.6247750000000        -4.124719399896399E-009
   52.7378250000000        -4.138258973465370E-009
   52.8508750000000        -4.151210523151261E-009
   52.9639250000000        -4.163754574557992E-009
   53.0769750000000        -4.176084174424614E-009
   53.1900250000000        -4.188399635409738E-009
   53.3030750000000        -4.200897062756735E-009
   53.4161250000000        -4.213757645142552E-009
   53.5291750000000        -4.227141975803879E-009
   53.6422250000000        -4.241186911071466E-009
   53.7552750000000        -4.255994408450101E-009
   53.8683250000000        -4.271630129059918E-009
   53.9813750000000        -4.288122465793495E-009
   54.0944250000000        -4.305463182405595E-009
   54.2074750000000        -4.323611609466118E-009
   54.3205250000000        -4.342493611584801E-009
   54.4335750000000        -4.362008487742215E-009
   54.5466250000000        -4.382035686064007E-009
   54.6596750000000        -4.402446614951802E-009
   54.7727250000000        -4.423101717380365E-009
   54.8857750000000        -4.443868726211575E-009
   54.9988250000000        -4.464622053206793E-009
   55.1118750000000        -4.485255649793450E-009
   55.2249250000000        -4.505682858242355E-009
   55.3379750000000        -4.525846330873701E-009
   55.4510250000000        -4.545718618065943E-009
   55.5640750000000        -4.565299529069912E-009
   55.6771250000000        -4.584621390498335E-009
   55.7901750000000        -4.603744332277402E-009
   55.9032250000000        -4.622751531347578E-009
   56.0162750000000        -4.641743681590174E-009
   56.1293250000000        -4.660837789729284E-009
   56.2423750000000        -4.680150007991604E-009
   56.3554250000000        -4.699798750090131E-009
   56.4684750000000        -4.719890823206818E-009
   56.5815250000000        -4.740515469039345E-009
   56.6945750000000        -4.761738386600005E-009
   56.8076250000000        -4.783593009140166E-009
   56.9206750000000        -4.806082005198172E-009
   57.0337250000000        -4.829168185506744E-009
   57.1467750000000        -4.852784420269776E-009
   57.2598250000000        -4.876819311883291E-009
   57.3728750000000        -4.901136224678875E-009
   57.4859250000000        -4.925566149627947E-009
   57.5989750000000        -4.949920450860952E-009
   57.7120250000000        -4.973998492030779E-009
   57.8250750000000        -4.997595703366417E-009
   57.9381250000000        -5.020505601013201E-009
   58.0511750000000        -5.042545127805846E-009
   58.1642250000000        -5.063546443283200E-009
   58.2772750000000        -5.083377243880505E-009
   58.3903250000000        -5.101937788006396E-009
   58.5033750000000        -5.119177826909843E-009
   58.6164250000000        -5.135088646966163E-009
   58.7294750000000        -5.149709410993216E-009
   58.8425250000000        -5.163128349651885E-009
   58.9555750000000        -5.175473899504366E-009
   59.0686250000000        -5.186916702565364E-009
   59.1816750000000        -5.197654587992175E-009
   59.2947250000000        -5.207910512354123E-009
   59.4077750000000        -5.217922051501788E-009
   59.5208250000000        -5.227927464394425E-009
   59.6338750000000        -5.238158586524802E-009
   59.7469250000000        -5.248831783946439E-009
   59.8599750000000        -5.260134144942528E-009
   59.9730250000000        -5.272221643410680E-009
   60.0860750000000        -5.285208900765277E-009
   60.1991250000000        -5.299167114915944E-009
   60.3121750000000        -5.314120505682330E-009
   60.4252250000000        -5.330046770920468E-009
   60.5382750000000        -5.346885866252449E-009
   60.6513250000000        -5.364533461929992E-009
   60.7643750000000        -5.382856066707576E-009
   60.8774250000000        -5.401699349199059E-009
   60.9904750000000        -5.420888665706412E-009
   61.1035250000000        -5.440250770068223E-009
   61.2165750000000        -5.459613304317527E-009
   61.3296250000000        -5.478822235003054E-009
   61.4426750000000        -5.497739922520572E-009
   61.5557250000000        -5.516261702277676E-009
   61.6687750000000        -5.534317235562052E-009
   61.7818250000000        -5.551871806388446E-009
   61.8948750000000        -5.568932288660760E-009
   62.0079250000000        -5.585536107028997E-009
   62.1209750000000        -5.601760071446820E-009
   62.2340250000000        -5.617709119213697E-009
   62.3470750000000        -5.633506310554792E-009
   62.4601250000000        -5.649294829787174E-009
   62.5731750000000        -5.665216741650514E-009
   62.6862250000000        -5.681418523597133E-009
   62.7992750000000        -5.698028607322272E-009
   62.9123250000000        -5.715165257212975E-009
   63.0253750000000        -5.732912533529741E-009
   63.1384250000000        -5.751333420576323E-009
   63.2514750000000        -5.770452767132978E-009
   63.3645250000000        -5.790263722161976E-009
   63.4775750000000        -5.810726132827300E-009
   63.5906250000000        -5.831769983640780E-009
   63.7036750000000        -5.853297370391393E-009
   63.8167250000000        -5.875191849344555E-009
   63.9297750000000        -5.897321620916199E-009
   64.0428250000000        -5.919547151212956E-009
   64.1558750000000        -5.941731754755457E-009
   64.2689250000000        -5.963742211638289E-009
   64.3819750000000        -5.985458691364859E-009
   64.4950250000000        -6.006783636778483E-009
   64.6080750000000        -6.027637970560664E-009
   64.7211250000000        -6.047968531251334E-009
   64.8341750000000        -6.067745393536819E-009
   64.9472250000000        -6.086963387053781E-009
   65.0602750000000        -6.105641414086768E-009
   65.1733250000000        -6.123815594758621E-009
   65.2863750000000        -6.141535365204402E-009
   65.3994250000000        -6.158859111637729E-009
   65.5124750000000        -6.175852095779712E-009