 -0.847875000000000        -7.641904524354498E-024
 -0.734825000000000         6.366385387962733E-017
 -0.621775000000000         4.484073029851180E-016
 -0.508725000000000         2.158852120473963E-015
 -0.395675000000000         8.380375533564174E-015
 -0.282625000000000         2.733499738352714E-014
 -0.169575000000000         7.636356880369693E-014
 -5.652500000000005E-002    1.854515311316220E-013
  5.652499999999994E-002    3.974575783464925E-013
  0.169575000000000         7.639001721616163E-013
  0.282625000000000         1.338245912740164E-012
  0.395675000000000         2.171157715502132E-012
  0.508725000000000         3.309723412900767E-012
  0.621775000000000         4.799270565875304E-012
  0.734825000000000         6.685153371510537E-012
  0.847875000000000         9.013516777404171E-012
  0.960925000000000         1.182871345984728E-011
   1.07397500000000         1.517174925796202E-011
   1.18702500000000         1.907585503465696E-011
   1.30007500000000         2.356286800965969E-011
   1.41312500000000         2.864025187447980E-011
   1.52617500000000         3.429580620478215E-011
   1.63922500000000         4.049391578128811E-011
   1.75227500000000         4.717710885749593E-011
   1.86532500000000         5.425776520089247E-011
   1.97837500000000         6.161962349662421E-011
   2.09142500000000         6.911746133738418E-011
   2.20447500000000         7.657664125845685E-011
   2.31752500000000         8.379474652494232E-011
   2.43057500000000         9.054866184483799E-011
   2.54362500000000         9.659183991389638E-011
   2.65667500000000         1.016656700241021E-010
   2.76972500000000         1.055067408587430E-010
   2.88277500000000         1.078482316719821E-010
   2.99582500000000         1.084396224720144E-010
   3.10887500000000         1.070422663330235E-010
   3.22192500000000         1.034504339270397E-010
   3.33497500000000         9.748760895738929E-011
   3.44802500000000         8.903469551700311E-011
   3.56107500000000         7.800246839149809E-011
   3.67412500000000         6.437687652034246E-011
   3.78717500000000         4.818603530313017E-011
   3.90022500000000         2.953950761125104E-011
   4.01327500000000         8.577502875712448E-012
   4.12632500000000        -1.449385945662628E-011
   4.23937500000000        -3.941502351898436E-011
   4.35242500000000        -6.589354531452793E-011
   4.46547500000000        -9.360474176717052E-011
   4.57852500000000        -1.222204439516607E-010
   4.69157500000000        -1.513986794281798E-010
   4.80462500000000        -1.807998339119426E-010
   4.91767500000000        -2.101194761706902E-010
   5.03072500000000        -2.390764163396190E-010
   5.14377500000000        -2.674391027701614E-010
   5.25682500000000        -2.950358508821691E-010
   5.36987500000000        -3.217331963127457E-010
   5.48292500000000        -3.474628993853693E-010
   5.59597500000000        -3.722137796387563E-010
   5.70902500000000        -3.960188942916893E-010
   5.82207500000000        -4.189700978118961E-010
   5.93512500000000        -4.411574559171020E-010
   6.04817500000000        -4.627055494182506E-010
   6.16122500000000        -4.837335113197622E-010
   6.27427500000000        -5.043444358552616E-010
   6.38732500000000        -5.245932646932619E-010
   6.50037500000000        -5.444888160329640E-010
   6.61342500000000        -5.639773553982536E-010
   6.72647500000000        -5.829196372401266E-010
   6.83952500000000        -6.010991786216022E-010
   6.95257500000000        -6.182032190294712E-010
   7.06562500000000        -6.338494155051685E-010
   7.17867500000000        -6.475728101142615E-010
   7.29172500000000        -6.588500508070122E-010
   7.40477500000000        -6.671190694221444E-010
   7.51782500000000        -6.717910784240948E-010
   7.63087500000000        -6.722996949841532E-010
   7.74392500000000        -6.680872270694280E-010
   7.85697500000000        -6.587003821120054E-010
   7.97002500000000        -6.437378753744464E-010
   8.08307500000000        -6.229515594945963E-010
   8.19612500000000        -5.962187995302386E-010
   8.30917500000000        -5.635686109865647E-010
   8.42222500000000        -5.252116225788423E-010
   8.53527500000000        -4.815154007578152E-010
   8.64832500000000        -4.330226080333932E-010
   8.76137500000000        -3.804215841579646E-010
   8.87442500000000        -3.245421561061310E-010
   8.98747500000000        -2.663095174288701E-010
   9.10052500000000        -2.067204945251352E-010
   9.21357500000000        -1.468073562796306E-010
   9.32662500000000        -8.759231749790868E-011
   9.43967500000000        -3.004610291366682E-011
   9.55272500000000         2.494860118056220E-011
   9.66577500000000         7.663310395080272E-011
   9.77882500000000         1.244213401865383E-010
   9.89187500000000         1.678866176989766E-010
   10.0049250000000         2.068239743231970E-010
   10.1179750000000         2.412196703695193E-010
   10.2310250000000         2.712690857841587E-010
   10.3440750000000         2.973447861292586E-010
   10.4571250000000         3.200010067112651E-010
   10.5701750000000         3.399114518631113E-010
   10.6832250000000         3.578457570025628E-010
   10.7962750000000         3.746315777229478E-010
   10.9093250000000         3.911015887771085E-010
   11.0223750000000         4.080325480817649E-010
   11.1354250000000         4.261381732059995E-010
   11.2484750000000         4.459948869112351E-010
   11.3615250000000         4.680160235873093E-010
   11.4745750000000         4.924507901856582E-010
   11.5876250000000         5.193384989271113E-010
   11.7006750000000         5.485373792219739E-010
   11.8137250000000         5.796990534219482E-010
   11.9267750000000         6.123396228265369E-010
   12.0398250000000         6.458015512264486E-010
   12.1528750000000         6.793629171326360E-010
   12.2659250000000         7.122344688952788E-010
   12.3789750000000         7.436341695328813E-010
   12.4920250000000         7.728382441233080E-010
   12.6050750000000         7.992045156526420E-010
   12.7181250000000         8.222634054295053E-010
   12.8311750000000         8.417211854159322E-010
   12.9442250000000         8.574968513241608E-010
   13.0572750000000         8.697499956440480E-010
   13.1703250000000         8.788769405148904E-010
   13.2833750000000         8.855082066369902E-010
   13.3964250000000         8.904789544331530E-010
   13.5094750000000         8.948156271660814E-010
   13.6225250000000         8.996629532078766E-010
   13.7355750000000         9.062565035892793E-010
   13.8486250000000         9.158549464896409E-010
   13.9616750000000         9.296729324470131E-010
   14.0747250000000         9.488268476498249E-010
   14.1877750000000         9.742638239357460E-010
   14.3008250000000         1.006733159933851E-009
   14.4138750000000         1.046709229638248E-009
   14.5269250000000         1.094383710219358E-009
   14.6399750000000         1.149645239760547E-009
   14.7530250000000         1.212066093233572E-009
   14.8660750000000         1.280920204075386E-009
   14.9791250000000         1.355202628936484E-009
   15.0921750000000         1.433662208977302E-009
   15.2052250000000         1.514876627533408E-009
   15.3182750000000         1.597281268653506E-009
   15.4313250000000         1.679248862245285E-009
   15.5443750000000         1.759153616689049E-009
   15.6574250000000         1.835438889910125E-009
   15.7704750000000         1.906673010357958E-009
   15.8835250000000         1.971635611404434E-009
   15.9965750000000         2.029304127828387E-009
   16.1096250000000         2.078958549377823E-009
   16.2226750000000         2.120152692420705E-009
   16.3357250000000         2.152737185687760E-009
   16.4487750000000         2.176859751779589E-009
   16.5618250000000         2.192944689942310E-009
   16.6748750000000         2.201633618716623E-009
   16.7879250000000         2.203777895808729E-009
   16.9009750000000         2.200375518533573E-009
   17.0140250000000         2.192496180340302E-009
   17.1270750000000         2.181255149410908E-009
   17.2401250000000         2.167730994933393E-009
   17.3531750000000         2.152925779878929E-009
   17.4662250000000         2.137716136005935E-009
   17.5792750000000         2.122819444769141E-009
   17.6923250000000         2.108757657767820E-009
   17.8053750000000         2.095860556560062E-009
   17.9184250000000         2.084239853537867E-009
   18.0314750000000         2.073820097147395E-009
   18.1445250000000         2.064354940159978E-009
   18.2575750000000         2.055435093812798E-009
   18.3706250000000         2.046565307367509E-009
   18.4836750000000         2.037173601542928E-009
   18.5967250000000         2.026673403546305E-009
   18.7097750000000         2.014505649172224E-009
   18.8228250000000         2.000175888081425E-009
   18.9358750000000         1.983304901623542E-009
   19.0489250000000         1.963657642111784E-009
   19.1619750000000         1.941142033995765E-009
   19.2750250000000         1.915870861208507E-009
   19.3880750000000         1.888115685085972E-009
   19.5011250000000         1.858342281941468E-009
   19.6141750000000         1.827164205561404E-009
   19.7272250000000         1.795341996867226E-009
   19.8402750000000         1.763737078100668E-009
   19.9533250000000         1.733281557565040E-009
   20.0663750000000         1.704953450723705E-009
   20.1794250000000         1.679706877559563E-009
   20.2924750000000         1.658476927301609E-009
   20.4055250000000         1.642087258332631E-009
   20.5185750000000         1.631285838094792E-009
   20.6316250000000         1.626658045769479E-009
   20.7446750000000         1.628649763967327E-009
   20.8577250000000         1.637540807579843E-009
   20.9707750000000         1.653432829635349E-009
   21.0838250000000         1.676264203560799E-009
   21.1968750000000         1.705823273639267E-009
   21.3099250000000         1.741746564106215E-009
   21.4229750000000         1.783542269667784E-009
   21.5360250000000         1.830630631256864E-009
   21.6490750000000         1.882340919770572E-009
   21.7621250000000         1.937954403427137E-009
   21.8751750000000         1.996724224808144E-009
   21.9882250000000         2.057884534413472E-009
   22.1012750000000         2.120692079079308E-009
   22.2143250000000         2.184426485456208E-009
   22.3273750000000         2.248399425197373E-009
   22.4404250000000         2.311979792960889E-009
   22.5534750000000         2.374586524457661E-009
   22.6665250000000         2.435704276456416E-009
   22.7795750000000         2.494872801793807E-009
   22.8926250000000         2.551687058542888E-009
   23.0056750000000         2.605800392111678E-009
   23.1187250000000         2.656930252991485E-009
   23.2317750000000         2.704834718228740E-009
   23.3448250000000         2.749329762597328E-009
   23.4578750000000         2.790271876012890E-009
   23.5709250000000         2.827586296550373E-009
   23.6839750000000         2.861232615827626E-009
   23.7970250000000         2.891220411651413E-009
   23.9100750000000         2.917627698332069E-009
   24.0231250000000         2.940571897883778E-009
   24.1361750000000         2.960239490197356E-009
   24.2492250000000         2.976871939634340E-009
   24.3622750000000         2.990747982312112E-009
   24.4753250000000         3.002226391747779E-009
   24.5883750000000         3.011703022043090E-009
   24.7014250000000         3.019614435904775E-009
   24.8144750000000         3.026434351210983E-009
   24.9275250000000         3.032664704964777E-009
   25.0405750000000         3.038827304093380E-009
   25.1536250000000         3.045443953774118E-009
   25.2666750000000         3.053032511318732E-009
   25.3797250000000         3.062098165270579E-009
   25.4927750000000         3.073116063264464E-009
   25.6058250000000         3.086532729992232E-009
   25.7188750000000         3.102753119641179E-009
   25.8319250000000         3.122139860633317E-009
   25.9449750000000         3.145008642098782E-009
   26.0580250000000         3.171635986329238E-009
   26.1710750000000         3.202252454053538E-009
   26.2841250000000         3.237046562015532E-009
   26.3971750000000         3.276177185532500E-009
   26.5102250000000         3.319776183028926E-009
   26.6232750000000         3.367948273495544E-009
   26.7363250000000         3.420784280300505E-009
   26.8493750000000         3.478346031307472E-009
   26.9624250000000         3.540690073312481E-009
   27.0754750000000         3.607851595956876E-009
   27.1885250000000         3.679848075618834E-009
   27.3015750000000         3.756651489974692E-009
   27.4146250000000         3.838222526294494E-009
   27.5276750000000         3.924449288007875E-009
   27.6407250000000         4.015175785899236E-009
   27.7537750000000         4.110174533927317E-009
   27.8668250000000         4.209131624925280E-009
   27.9798750000000         4.311650334211247E-009
   28.0929250000000         4.417233034527234E-009
   28.2059750000000         4.525287396207330E-009
   28.3190250000000         4.635123847059076E-009
   28.4320750000000         4.745963782986743E-009
   28.5451250000000         4.856938204868357E-009
   28.6581750000000         4.967130721785184E-009
   28.7712250000000         5.075567350337928E-009
   28.8842750000000         5.181259038157938E-009
   28.9973250000000         5.283226235680167E-009
   29.1103750000000         5.380519216229969E-009
   29.2234250000000         5.472264814739464E-009
   29.3364750000000         5.557669500947050E-009
   29.4495250000000         5.636084625094215E-009
   29.5625750000000         5.706983855490210E-009
   29.6756250000000         5.770024487246275E-009
   29.7886750000000         5.825025499399578E-009
   29.9017250000000         5.872003042395482E-009
   30.0147750000000         5.911153625719591E-009
   30.1278250000000         5.942847158551670E-009
   30.2408750000000         5.967622439847325E-009
   30.3539250000000         5.986150816091220E-009
   30.4669750000000         5.999242492083813E-009
   30.5800250000000         6.007766230338028E-009
   30.6930750000000         6.012666293362736E-009
   30.8061250000000         6.014903842737269E-009
   30.9191750000000         6.015415302860991E-009
   31.0322250000000         6.015106631838849E-009
   31.1452750000000         6.014799950185261E-009
   31.2583250000000         6.015231930077546E-009
   31.3713750000000         6.017011193130495E-009
   31.4844250000000         6.020619744819950E-009
   31.5974750000000         6.026415836912706E-009
   31.7105250000000         6.034603392900799E-009
   31.8235750000000         6.045283614916871E-009
   31.9366250000000         6.058422237919778E-009
   32.0496750000000         6.073900168732189E-009
   32.1627250000000         6.091512494835159E-009
   32.2757750000000         6.111006818583235E-009
   32.3888250000000         6.132093302526943E-009
   32.5018750000000         6.154477346053372E-009
   32.6149250000000         6.177876576930098E-009
   32.7279750000000         6.202030386576787E-009
   32.8410250000000         6.226738509590006E-009
   32.9540750000000         6.251840136942805E-009
   33.0671250000000         6.277242715408349E-009
   33.1801750000000         6.302906524021846E-009
   33.2932250000000         6.328850036327749E-009
   33.4062750000000         6.355124330909725E-009
   33.5193250000000         6.381831984911165E-009
   33.6323750000000         6.409079591980992E-009
   33.7454250000000         6.436977879589004E-009
   33.8584750000000         6.465625401473310E-009
   33.9715250000000         6.495078577033682E-009
   34.0845750000000         6.525366553733223E-009
   34.1976250000000         6.556446086075095E-009
   34.3106750000000         6.588225021448392E-009
   34.4237250000000         6.620545552399648E-009
   34.5367750000000         6.653175875728489E-009
   34.6498250000000         6.685836427813641E-009
   34.7628750000000         6.718201251340231E-009
   34.8759250000000         6.749905711541870E-009
   34.9889750000000         6.780577071075764E-009
   35.1020250000000         6.809839662518103E-009
   35.2150750000000         6.837345488633319E-009
   35.3281250000000         6.862783339272519E-009
   35.4411750000000         6.885912432839054E-009
   35.5542250000000         6.906568437622019E-009
   35.6672750000000         6.924678722267863E-009
   35.7803250000000         6.940276537619575E-009
   35.8933750000000         6.953499926629420E-009
   36.0064250000000         6.964605726896372E-009
   36.1194750000000         6.973948356762330E-009
   36.2325250000000         6.981998059103051E-009
   36.3455750000000         6.989293426673604E-009
   36.4586250000000         6.996455330409498E-009
   36.5716750000000         7.004145385906658E-009
   36.6847250000000         7.013072289173334E-009
   36.7977750000000         7.023925156612221E-009
   36.9108250000000         7.037390584081419E-009
   37.0238750000000         7.054109856708367E-009
   37.1369250000000         7.074654325632020E-009
   37.2499750000000         7.099510431570530E-009
   37.3630250000000         7.129071174257442E-009
   37.4760750000000         7.163593841450552E-009
   37.5891250000000         7.203237707913552E-009
   37.7021750000000         7.248005864930490E-009
   37.8152250000000         7.297783602396585E-009
   37.9282750000000         7.352330160752877E-009
   38.0413250000000         7.411282135910879E-009
   38.1543750000000         7.474183662923859E-009
   38.2674250000000         7.540479606545795E-009
   38.3804750000000         7.609556524883845E-009
   38.4935250000000         7.680735903864116E-009
   38.6065750000000         7.753350168425791E-009
   38.7196250000000         7.826704174869306E-009
   38.8326750000000         7.900139337028137E-009
   38.9457250000000         7.973041023753875E-009
   39.0587750000000         8.044873561238268E-009
   39.1718250000000         8.115179877571518E-009
   39.2848750000000         8.183604717062432E-009
   39.3979250000000         8.249905635688483E-009
   39.5109750000000         8.313965844005362E-009
   39.6240250000000         8.375790730278813E-009
   39.7370750000000         8.435493526255107E-009
   39.8501250000000         8.493312084131839E-009
   39.9631750000000         8.549576236292342E-009
   40.0762250000000         8.604699646454817E-009
   40.1892750000000         8.659162739816344E-009
   40.3023250000000         8.713494876603965E-009
   40.4153750000000         8.768240225718084E-009
   40.5284250000000         8.823927981431293E-009
   40.6414750000000         8.881071496966621E-009
   40.7545250000000         8.940125331626818E-009
   40.8675750000000         9.001474872273094E-009
   40.9806250000000         9.065403668227141E-009
   41.0936750000000         9.132100766433882E-009
   41.2067250000000         9.201630039624027E-009
   41.3197750000000         9.273954647665574E-009
   41.4328250000000         9.348902015240393E-009
   41.5458750000000         9.426193942778986E-009
   41.6589250000000         9.505458341319243E-009
   41.7719750000000         9.586238659333095E-009
   41.8850250000000         9.668019384978571E-009
   41.9980750000000         9.750247804136811E-009
   42.1111250000000         9.832362111243040E-009
   42.2241750000000         9.913812115068620E-009
   42.3372250000000         9.994093175405301E-009
   42.4502750000000         1.007275149870711E-008
   42.5633250000000         1.014944868669696E-008
   42.6763750000000         1.022391693143440E-008
   42.7894250000000         1.029601779419129E-008
   42.9024750000000         1.036572788899914E-008
   43.0155250000000         1.043314883766732E-008
   43.1285750000000         1.049847450572879E-008
   43.2416250000000         1.056202040188792E-008
   43.3546750000000         1.062416959828479E-008
   43.4677250000000         1.068535302637010E-008
   43.5807750000000         1.074605084195202E-008
   43.6938250000000         1.080673053259461E-008
   43.8068750000000         1.086784464636706E-008
   43.9199250000000         1.092978196387405E-008
   44.0329750000000         1.099285762400677E-008
   44.1460250000000         1.105728833674168E-008
   44.2590750000000         1.112315580138605E-008
   44.3721250000000         1.119044512111120E-008
   44.4851750000000         1.125898526977383E-008
   44.5982250000000         1.132849277294242E-008
   44.7112750000000         1.139857324761433E-008
   44.8243250000000         1.146872224458678E-008
   44.9373750000000         1.153836498449627E-008
   45.0504250000000         1.160689254037329E-008
   45.1634750000000         1.167366861582700E-008
   45.2765250000000         1.173807515355328E-008
   45.3895750000000         1.179955290132029E-008
   45.5026250000000         1.185761482507940E-008
   45.6156750000000         1.191188436576041E-008
   45.7287250000000         1.196210970715614E-008
   45.8417750000000         1.200818474931164E-008
   45.9548250000000         1.205016428717174E-008
   46.0678750000000         1.208824134761687E-008
   46.1809250000000         1.212276237131961E-008
   46.2939750000000         1.215420453399709E-008
   46.4070250000000         1.218314994589622E-008
   46.5200750000000         1.221025888197758E-008
   46.6331250000000         1.223624397588666E-008
   46.7461750000000         1.226182812587472E-008
   46.8592250000000         1.228771985121247E-008
   46.9722750000000         1.231455775751879E-008
   47.0853250000000         1.234290378721781E-008
   47.1983750000000         1.237320105893367E-008
   47.3114250000000         1.240575231820727E-008
   47.4244750000000         1.244071769506050E-008
   47.5375250000000         1.247809903457266E-008
   47.6505750000000         1.251774700216945E-008
   47.7636250000000         1.255936472694320E-008
   47.8766750000000         1.260253500125317E-008
   47.9897250000000         1.264674591379234E-008
   48.1027750000000         1.269141808725674E-008
   48.2158250000000         1.273592872951862E-008
   48.3288750000000         1.277967596766694E-008
   48.4419250000000         1.282208830048175E-008
   48.5549750000000         1.286267049118854E-008
   48.6680250000000         1.290103471037750E-008
   48.7810750000000         1.293692935371682E-008
   48.8941250000000         1.297025527337287E-008
   49.0071750000000         1.300106647700429E-008
   49.1202250000000         1.302959328682230E-008
   49.2332750000000         1.305622471408125E-008
   49.3463250000000         1.308149412215686E-008
   49.4593750000000         1.310605726636695E-008
   49.5724250000000         1.313067405486440E-008
   49.6854750000000         1.315615491379286E-008
   49.7985250000000         1.318333985600619E-008
   49.9115750000000         1.321306284147981E-008
   50.0246250000000         1.324609017667151E-008
   50.1376750000000         1.328311270462467E-008
   50.2507250000000         1.332468135443949E-008
   50.3637750000000         1.337120162874721E-008
   50.4768250000000         1.342292502632023E-008
   50.5898750000000         1.347989040557036E-008
   50.7029250000000         1.354196700198586E-008
   50.8159750000000         1.360881786561066E-008
   50.9290250000000         1.367996159541355E-008
   51.0420750000000         1.375473722299384E-008
   51.1551250000000         1.383237118198500E-008
   51.2681750000000         1.391198813431932E-008
   51.3812250000000         1.399265973711956E-008
   51.4942750000000         1.407344211183657E-008
   51.6073250000000         1.415339387830961E-008
   51.7203750000000         1.423165278403916E-008
   51.8334250000000         1.430744098469484E-008
   51.9464750000000         1.438009882940253E-008
   52.0595250000000         1.444912462833421E-008
   52.1725750000000         1.451416924791780E-008
   52.2856250000000         1.457507363172262E-008
   52.3986750000000         1.463185777404078E-008
   52.5117250000000         1.468471654852064E-008
   52.6247750000000         1.473400130835510E-008
   52.7378250000000         1.478020869057351E-008
   52.8508750000000         1.482396209423081E-008
   52.9639250000000         1.486597105619909E-008
   53.0769750000000         1.490700343194392E-008
   53.1900250000000         1.494785252711920E-008
   53.3030750000000         1.498930248729544E-008
   53.4161250000000         1.503209621914501E-008
   53.5291750000000         1.507689459291782E-008
   53.6422250000000         1.512428246482420E-008
   53.7552750000000         1.517470771524927E-008
   53.8683250000000         1.522849134980967E-008
   53.9813750000000         1.528581368994210E-008
   54.0944250000000         1.534670689027304E-008
   54.2074750000000         1.541106975612612E-008
   54.3205250000000         1.547868091912490E-008
   54.4335750000000         1.554918877132054E-008
   54.5466250000000         1.562216050848022E-008
   54.6596750000000         1.569710484094734E-008
   54.7727250000000         1.577347827510441E-008
   54.8857750000000         1.585073493126847E-008
   54.9988250000000         1.592833444973612E-008
   55.1118750000000         1.600578845264945E-008
   55.2249250000000         1.608265936321546E-008
   55.3379750000000         1.615860686703182E-008
   55.4510250000000         1.623338274866363E-008
   55.5640750000000         1.630683834735179E-008
   55.6771250000000         1.637893738522697E-008
   55.7901750000000         1.644974990835942E-008
   55.9032250000000         1.651944148864563E-008
   56.0162750000000         1.658825315989921E-008
   56.1293250000000         1.665650356295567E-008
   56.2423750000000         1.672453425297314E-008
   56.3554250000000         1.679271605781795E-008
   56.4684750000000         1.686140805481136E-008
   56.5815250000000         1.693093538149318E-008
   56.6945750000000         1.700156406552877E-008
   56.8076250000000         1.707347212819207E-008
   56.9206750000000         1.714675000276717E-008
   57.0337250000000         1.722136972193343E-008
   57.1467750000000         1.729720440205139E-008
   57.2598250000000         1.737398722734672E-008
   57.3728750000000         1.745136413322480E-008
   57.4859250000000         1.752886806284616E-008
   57.5989750000000         1.760595705727786E-008
   57.7120250000000         1.768203846638808E-008
   57.8250750000000         1.775649344908717E-008
   57.9381250000000         1.782867948517241E-008
   58.0511750000000         1.789802539999863E-008
   58.1642250000000         1.796398429053626E-008
   58.2772750000000         1.802612968002205E-008
   58.3903250000000         1.808412913071669E-008
   58.5033750000000         1.813780624717907E-008
   58.6164250000000         1.818712565944882E-008
   58.7294750000000         1.823221016077295E-008
   58.8425250000000         1.827334903866423E-008
   58.9555750000000         1.831098110089626E-008
   59.0686250000000         1.834568842451377E-008
   59.1816750000000         1.837816279748218E-008
   59.2947250000000         1.840919088828972E-008
   59.4077750000000         1.843962496101977E-008
   59.5208250000000         1.847032928605259E-008
   59.6338750000000         1.850216436882482E-008
   59.7469250000000         1.853594543064518E-008
   59.8599750000000         1.857239636266520E-008
   59.9730250000000         1.861213925662012E-008
   60.0860750000000         1.865565219120070E-008
   60.1991250000000         1.870326093984978E-008
   60.3121750000000         1.875512555494584E-008
   60.4252250000000         1.881123188410139E-008
   60.5382750000000         1.887140955395305E-008
   60.6513250000000         1.893532477800425E-008
   60.7643750000000         1.900251725872789E-008
   60.8774250000000         1.907242218094243E-008
   60.9904750000000         1.914438785063916E-008
   61.1035250000000         1.921773428637001E-008
   61.2165750000000         1.929176232374023E-008
   61.3296250000000         1.936581087373277E-008
   61.4426750000000         1.943926175330663E-008
   61.5557250000000         1.951159999816930E-008
   61.6687750000000         1.958240968758396E-008
   61.7818250000000         1.965141420491144E-008
   61.8948750000000         1.971846711002163E-008
   62.0079250000000         1.978355433086088E-008
   62.1209750000000         1.984680919936505E-008
   62.2340250000000         1.990848239287326E-008
   62.3470750000000         1.996891738068900E-008
   62.4601250000000         2.002855667610463E-008
   62.5731750000000         2.008787029473391E-008
   62.6862250000000         2.014737212586125E-008
   62.7992750000000         2.020755641359407E-008
   62.9123250000000         2.026889180906752E-008
   63.0253750000000         2.033177542003924E-008
   63.1384250000000         2.039653765635277E-008
   63.2514750000000         2.046339440087305E-008
   63.3645250000000         2.053246779925482E-008
   63.4775750000000         2.060375753714883E-008
   63.5906250000000         2.067716622715436E-008
   63.7036750000000         2.075248602185928E-008
   63.8167250000000         2.082943123775550E-008
   63.9297750000000         2.090763867824593E-008
   64.0428250000000         2.098670234251485E-008
   64.1558750000000         2.106619721042308E-008
   64.2689250000000         2.114568438941579E-008
   64.3819750000000         2.122474800351180E-008
   64.4950250000000         2.130301923992216E-008
   64.6080750000000         2.138017670387629E-008
   64.7211250000000         2.145596874850903E-008
   64.8341750000000         2.153021230035945E-008
   64.9472250000000         2.160280027764099E-008
   65.0602750000000         2.167370771878472E-008
   65.1733250000000         2.174296619302704E-008
   65.2863750000000         2.181066466565851E-008
   65.3994250000000         2.187693342240204E-008
   65.5124750000000         2.194193502478702E-008