 -0.847875000000000         5.287664155943397E-021
 -0.734825000000000         4.376438461473462E-019
 -0.621775000000000         3.973826737020444E-018
 -0.508725000000000         2.257402762073327E-017
 -0.395675000000000         1.001652010699537E-016
 -0.282625000000000         3.719893635781696E-016
 -0.169575000000000         1.191786396131954E-015
 -5.652500000000005E-002    3.356984736852685E-015
  5.652499999999994E-002    8.443568673022523E-015
  0.169575000000000         1.923536670286476E-014
  0.282625000000000         4.021983882499934E-014
  0.395675000000000         7.813053161773199E-014
  0.508725000000000         1.425187315116185E-013
  0.621775000000000         2.463377333538895E-013
  0.734825000000000         4.064887825900865E-013
  0.847875000000000         6.442800937689880E-013
  0.960925000000000         9.857236780590228E-013
   1.07397500000000         1.461661445234322E-012
   1.18702500000000         2.107690274375332E-012
   1.30007500000000         2.963877568350475E-012
   1.41312500000000         4.074283655636735E-012
   1.52617500000000         5.486260070860563E-012
   1.63922500000000         7.249610927928167E-012
   1.75227500000000         9.415614233048859E-012
   1.86532500000000         1.203585621855294E-011
   1.97837500000000         1.516097748453548E-011
   2.09142500000000         1.883936943736374E-011
   2.20447500000000         2.311579051133677E-011
   2.31752500000000         2.803002558087538E-011
   2.43057500000000         3.361551918398522E-011
   2.54362500000000         3.989815749344301E-011
   2.65667500000000         4.689509999179829E-011
   2.76972500000000         5.461384025279010E-011
   2.88277500000000         6.305142079875473E-011
   2.99582500000000         7.219402351359353E-011
   3.10887500000000         8.201674793883511E-011
   3.22192500000000         9.248365677188604E-011
   3.33497500000000         1.035482936191310E-010
   3.44802500000000         1.151544485906204E-010
   3.56107500000000         1.272374448224504E-010
   3.67412500000000         1.397254536816384E-010
   3.78717500000000         1.525411359683478E-010
   3.90022500000000         1.656037831215751E-010
   4.01327500000000         1.788312196478157E-010
   4.12632500000000         1.921418956169095E-010
   4.23937500000000         2.054571586102360E-010
   4.35242500000000         2.187030540640436E-010
   4.46547500000000         2.318123982916752E-010
   4.57852500000000         2.447262094560042E-010
   4.69157500000000         2.573947622177198E-010
   4.80462500000000         2.697787553488522E-010
   4.91767500000000         2.818496786603993E-010
   5.03072500000000         2.935899440385328E-010
   5.14377500000000         3.049926561063686E-010
   5.25682500000000         3.160608323055486E-010
   5.36987500000000         3.268064580483027E-010
   5.48292500000000         3.372493572103683E-010
   5.59597500000000         3.474158231437410E-010
   5.70902500000000         3.573371229411575E-010
   5.82207500000000         3.670480319264521E-010
   5.93512500000000         3.765852726951750E-010
   6.04817500000000         3.859863176380614E-010
   6.16122500000000         3.952882966418858E-010
   6.27427500000000         4.045269317195113E-010
   6.38732500000000         4.137360064788925E-010
   6.50037500000000         4.229469901155715E-010
   6.61342500000000         4.321889577107908E-010
   6.72647500000000         4.414888167894638E-010
   6.83952500000000         4.508717745593665E-010
   6.95257500000000         4.603618418632719E-010
   7.06562500000000         4.699827923566484E-010
   7.17867500000000         4.797590907157642E-010
   7.29172500000000         4.897166426927046E-010
   7.40477500000000         4.998838924766304E-010
   7.51782500000000         5.102924194393670E-010
   7.63087500000000         5.209776413329161E-010
   7.74392500000000         5.319790788602131E-010
   7.85697500000000         5.433403671855043E-010
   7.97002500000000         5.551090501582626E-010
   8.08307500000000         5.673358999619078E-010
   8.19612500000000         5.800740459381250E-010
   8.30917500000000         5.933774241323679E-010
   8.42222500000000         6.072993635370544E-010
   8.53527500000000         6.218908192114776E-010
   8.64832500000000         6.371983278958047E-010
   8.76137500000000         6.532620581714080E-010
   8.87442500000000         6.701138937783446E-010
   8.98747500000000         6.877756313014940E-010
   9.10052500000000         7.062574301378640E-010
   9.21357500000000         7.255566776914288E-010
   9.32662500000000         7.456572024110878E-010
   9.43967500000000         7.665292190628109E-010
   9.55272500000000         7.881296021837638E-010
   9.66577500000000         8.104026100919633E-010
   9.77882500000000         8.332813843889980E-010
   9.89187500000000         8.566896980524317E-010
   10.0049250000000         8.805441062765961E-010
   10.1179750000000         9.047565565265963E-010
   10.2310250000000         9.292371017593545E-010
   10.3440750000000         9.538966061566291E-010
   10.4571250000000         9.786493200435997E-010
   10.5701750000000         1.003415324119650E-009
   10.6832250000000         1.028122838913646E-009
   10.7962750000000         1.052709804796091E-009
   10.9093250000000         1.077125165650103E-009
   11.0223750000000         1.101329677508174E-009
   11.1354250000000         1.125296023086757E-009
   11.2484750000000         1.149008729590441E-009
   11.3615250000000         1.172463258462086E-009
   11.4745750000000         1.195664924750601E-009
   11.5876250000000         1.218627477681493E-009
   11.7006750000000         1.241371361819262E-009
   11.8137250000000         1.263921963217236E-009
   11.9267750000000         1.286307924739909E-009
   12.0398250000000         1.308559466237701E-009
   12.1528750000000         1.330706918688269E-009
   12.2659250000000         1.352779673163190E-009
   12.3789750000000         1.374805347354155E-009
   12.4920250000000         1.396809371145835E-009
   12.6050750000000         1.418814982863267E-009
   12.7181250000000         1.440843648338639E-009
   12.8311750000000         1.462915879165879E-009
   12.9442250000000         1.485052291528582E-009
   13.0572750000000         1.507274779723376E-009
   13.1703250000000         1.529607904476344E-009
   13.2833750000000         1.552080341947831E-009
   13.3964250000000         1.574726300960844E-009
   13.5094750000000         1.597586442446434E-009
   13.6225250000000         1.620708787051169E-009
   13.7355750000000         1.644149247337330E-009
   13.8486250000000         1.667971338240800E-009
   13.9616750000000         1.692245715257866E-009
   14.0747250000000         1.717049026319869E-009
   14.1877750000000         1.742462237987549E-009
   14.3008250000000         1.768568604546984E-009
   14.4138750000000         1.795450965604482E-009
   14.5269250000000         1.823188962689387E-009
   14.6399750000000         1.851855939851528E-009
   14.7530250000000         1.881515919286597E-009
   14.8660750000000         1.912220742663860E-009
   14.9791250000000         1.944007288985251E-009
   15.0921750000000         1.976895214564100E-009
   15.2052250000000         2.010885351291403E-009
   15.3182750000000         2.045958765200632E-009
   15.4313250000000         2.082076491354481E-009
   15.5443750000000         2.119180190060191E-009
   15.6574250000000         2.157193466967535E-009
   15.7704750000000         2.196024151813312E-009
   15.8835250000000         2.235567306251247E-009
   15.9965750000000         2.275708622158072E-009
   16.1096250000000         2.316328291768369E-009
   16.2226750000000         2.357305193158566E-009
   16.3357250000000         2.398521272431057E-009
   16.4487750000000         2.439865585294524E-009
   16.5618250000000         2.481238105971241E-009
   16.6748750000000         2.522553147694935E-009
   16.7879250000000         2.563742039011633E-009
   16.9009750000000         2.604755309415722E-009
   17.0140250000000         2.645563665205419E-009
   17.1270750000000         2.686158284129501E-009
   17.2401250000000         2.726550342538884E-009
   17.3531750000000         2.766769657556203E-009
   17.4662250000000         2.806862480210097E-009
   17.5792750000000         2.846888635311235E-009
   17.6923250000000         2.886918456585836E-009
   17.8053750000000         2.927028930280381E-009
   17.9184250000000         2.967299886530033E-009
   18.0314750000000         3.007810304632328E-009
   18.1445250000000         3.048634439906273E-009
   18.2575750000000         3.089838384632314E-009
   18.3706250000000         3.131477342009450E-009
   18.4836750000000         3.173593066602575E-009
   18.5967250000000         3.216212194140146E-009
   18.7097750000000         3.259345288728664E-009
   18.8228250000000         3.302986545928507E-009
   18.9358750000000         3.347114368362821E-009
   19.0489250000000         3.391692533852256E-009
   19.1619750000000         3.436672120114678E-009
   19.2750250000000         3.481994001594986E-009
   19.3880750000000         3.527591621953658E-009
   19.5011250000000         3.573394252254663E-009
   19.6141750000000         3.619330381392160E-009
   19.7272250000000         3.665331107638631E-009
   19.8402750000000         3.711333201877144E-009
   19.9533250000000         3.757282216446691E-009
   20.0663750000000         3.803135155545800E-009
   20.1794250000000         3.848862390752163E-009
   20.2924750000000         3.894449263097882E-009
   20.4055250000000         3.939896951221572E-009
   20.5185750000000         3.985222779709983E-009
   20.6316250000000         4.030459752812658E-009
   20.7446750000000         4.075655788207994E-009
   20.8577250000000         4.120872183113126E-009
   20.9707750000000         4.166181773789444E-009
   21.0838250000000         4.211666723465297E-009
   21.1968750000000         4.257416018737309E-009
   21.3099250000000         4.303523188081808E-009
   21.4229750000000         4.350083669985562E-009
   21.5360250000000         4.397192255933088E-009
   21.6490750000000         4.444940992856030E-009
   21.7621250000000         4.493417230822116E-009
   21.8751750000000         4.542701775856389E-009
   21.9882250000000         4.592867527508585E-009
   22.1012750000000         4.643978500049277E-009
   22.2143250000000         4.696089042700463E-009
   22.3273750000000         4.749243403969212E-009
   22.4404250000000         4.803475591772041E-009
   22.5534750000000         4.858809507988545E-009
   22.6665250000000         4.915259269081351E-009
   22.7795750000000         4.972829713497099E-009
   22.8926250000000         5.031516980394454E-009
   23.0056750000000         5.091309283199480E-009
   23.1187250000000         5.152187730501588E-009
   23.2317750000000         5.214127179670548E-009
   23.3448250000000         5.277097199232987E-009
   23.4578750000000         5.341062812427770E-009
   23.5709250000000         5.405985420830497E-009
   23.6839750000000         5.471823707122967E-009
   23.7970250000000         5.538534456700299E-009
   23.9100750000000         5.606073352837356E-009
   24.0231250000000         5.674395641491677E-009
   24.1361750000000         5.743456773826440E-009
   24.2492250000000         5.813213008418291E-009
   24.3622750000000         5.883621988308351E-009
   24.4753250000000         5.954643197132576E-009
   24.5883750000000         6.026238310518944E-009
   24.7014250000000         6.098371630608122E-009
   24.8144750000000         6.171010345353183E-009
   24.9275250000000         6.244124764043468E-009
   25.0405750000000         6.317688716742630E-009
   25.1536250000000         6.391679795579158E-009
   25.2666750000000         6.466079619368184E-009
   25.3797250000000         6.540874146484667E-009
   25.4927750000000         6.616054022545543E-009
   25.6058250000000         6.691614888931460E-009
   25.7188750000000         6.767557714658465E-009
   25.8319250000000         6.843889078317226E-009
   25.9449750000000         6.920621620459053E-009
   26.0580250000000         6.997774175630751E-009
   26.1710750000000         7.075371952300778E-009
   26.2841250000000         7.153446874423352E-009
   26.3971750000000         7.232037468024614E-009
   26.5102250000000         7.311188801114833E-009
   26.6232750000000         7.390952331607044E-009
   26.7363250000000         7.471385545337116E-009
   26.8493750000000         7.552551533052193E-009
   26.9624250000000         7.634518472236600E-009
   27.0754750000000         7.717358751387274E-009
   27.1885250000000         7.801148152338883E-009
   27.3015750000000         7.885964841690995E-009
   27.4146250000000         7.971888310241734E-009
   27.5276750000000         8.058998126297763E-009
   27.6407250000000         8.147372556630565E-009
   27.7537750000000         8.237087278691741E-009
   27.8668250000000         8.328213713521318E-009
   27.9798750000000         8.420817572129825E-009
   28.0929250000000         8.514957406910547E-009
   28.2059750000000         8.610683098398878E-009
   28.3190250000000         8.708034425209696E-009
   28.4320750000000         8.807039718025685E-009
   28.5451250000000         8.907714769762277E-009
   28.6581750000000         9.010061900912235E-009
   28.7712250000000         9.114069235569260E-009
   28.8842750000000         9.219710339922446E-009
   28.9973250000000         9.326944296374694E-009
   29.1103750000000         9.435715935816116E-009
   29.2234250000000         9.545956536427195E-009
   29.3364750000000         9.657585055343933E-009
   29.4495250000000         9.770509342231692E-009
   29.5625750000000         9.884627994049477E-009
   29.6756250000000         9.999832324505214E-009
   29.7886750000000         1.011600853509654E-008
   29.9017250000000         1.023304019821011E-008
   30.0147750000000         1.035081039233628E-008
   30.1278250000000         1.046920416001594E-008
   30.2408750000000         1.058811068056336E-008
   30.3539250000000         1.070742523599774E-008
   30.4669750000000         1.082705101687433E-008
   30.5800250000000         1.094690057581088E-008
   30.6930750000000         1.106689698774210E-008
   30.8061250000000         1.118697449157598E-008
   30.9191750000000         1.130707903081057E-008
   31.0322250000000         1.142716824004234E-008
   31.1452750000000         1.154721122215393E-008
   31.2583250000000         1.166718799908753E-008
   31.3713750000000         1.178708863671741E-008
   31.4844250000000         1.190691238942786E-008
   31.5974750000000         1.202666652532248E-008
   31.7105250000000         1.214636517280880E-008
   31.8235750000000         1.226602808716373E-008
   31.9366250000000         1.238567947649036E-008
   32.0496750000000         1.250534690507591E-008
   32.1627250000000         1.262506027676529E-008
   32.2757750000000         1.274485100002846E-008
   32.3888250000000         1.286475125380349E-008
   32.5018750000000         1.298479357418831E-008
   32.6149250000000         1.310501060367938E-008
   32.7279750000000         1.322543468887381E-008
   32.8410250000000         1.334609809922561E-008
   32.9540750000000         1.346703330563405E-008
   33.0671250000000         1.358827313536473E-008
   33.1801750000000         1.370985122633605E-008
   33.2932250000000         1.383180242107961E-008
   33.4062750000000         1.395416313319618E-008
   33.5193250000000         1.407697161133979E-008
   33.6323750000000         1.420026827122282E-008
   33.7454250000000         1.432409572392275E-008
   33.8584750000000         1.444849860054970E-008
   33.9715250000000         1.457352330764810E-008
   34.0845750000000         1.469921750629587E-008
   34.1976250000000         1.482562925026136E-008
   34.3106750000000         1.495280617618100E-008
   34.4237250000000         1.508079456700753E-008
   34.5367750000000         1.520963800788346E-008
   34.6498250000000         1.533937620973575E-008
   34.7628750000000         1.547004395817323E-008
   34.8759250000000         1.560166998325096E-008
   34.9889750000000         1.573427597836290E-008
   35.1020250000000         1.586787595848965E-008
   35.2150750000000         1.600247576348627E-008
   35.3281250000000         1.613807291137746E-008
   35.4411750000000         1.627465683992782E-008
   35.5542250000000         1.641220931900544E-008
   35.6672750000000         1.655070526903433E-008
   35.7803250000000         1.669011402745206E-008
   35.8933750000000         1.683040064246499E-008
   36.0064250000000         1.697152754773421E-008
   36.1194750000000         1.711345631695228E-008
   36.2325250000000         1.725614954728730E-008
   36.3455750000000         1.739957285170579E-008
   36.4586250000000         1.754369657629244E-008
   36.5716750000000         1.768849758746087E-008
   36.6847250000000         1.783396091851496E-008
   36.7977750000000         1.798008093205761E-008
   36.9108250000000         1.812686231700384E-008
   37.0238750000000         1.827432100138085E-008
   37.1369250000000         1.842248413387322E-008
   37.2499750000000         1.857139008457468E-008
   37.3630250000000         1.872108793944519E-008
   37.4760750000000         1.887163648897672E-008
   37.5891250000000         1.902310298756009E-008
   37.7021750000000         1.917556147139304E-008
   37.8152250000000         1.932909072771211E-008
   37.9282750000000         1.948377201911776E-008
   38.0413250000000         1.963968689549832E-008
   38.1543750000000         1.979691468295628E-008
   38.2674250000000         1.995552998101205E-008
   38.3804750000000         2.011560038087002E-008
   38.4935250000000         2.027718432589609E-008
   38.6065750000000         2.044032934049264E-008
   38.7196250000000         2.060507051533207E-008
   38.8326750000000         2.077142943813975E-008
   38.9457250000000         2.093941364285999E-008
   39.0587750000000         2.110901656598535E-008
   39.1718250000000         2.128021818106316E-008
   39.2848750000000         2.145298575032095E-008
   39.3979250000000         2.162727537215100E-008
   39.5109750000000         2.180303387282960E-008
   39.6240250000000         2.198020080774368E-008
   39.7370750000000         2.215871100557197E-008
   39.8501250000000         2.233849706521469E-008
   39.9631750000000         2.251949192937116E-008
   40.0762250000000         2.270163148531874E-008
   40.1892750000000         2.288485690233468E-008
   40.3023250000000         2.306911671922976E-008
   40.4153750000000         2.325436862406230E-008
   40.5284250000000         2.344058100853234E-008
   40.6414750000000         2.362773399852145E-008
   40.7545250000000         2.381581990034523E-008
   40.8675750000000         2.400484356735816E-008
   40.9806250000000         2.419482210308439E-008
   41.0936750000000         2.438578421371099E-008
   41.2067250000000         2.457776925422411E-008
   41.3197750000000         2.477082608056265E-008
   41.4328250000000         2.496501153963125E-008
   41.5458750000000         2.516038874954598E-008
   41.6589250000000         2.535702558384506E-008
   41.7719750000000         2.555499288398745E-008
   41.8850250000000         2.575436281130148E-008
   41.9980750000000         2.595520733889218E-008
   42.1111250000000         2.615759674982619E-008
   42.2241750000000         2.636159832939813E-008
   42.3372250000000         2.656727531854806E-008
   42.4502750000000         2.677468600884684E-008
   42.5633250000000         2.698388314107608E-008
   42.6763750000000         2.719491320816628E-008
   42.7894250000000         2.740781591379364E-008
   42.9024750000000         2.762262396579036E-008
   43.0155250000000         2.783936276968445E-008
   43.1285750000000         2.805805011576068E-008
   43.2416250000000         2.827869574326241E-008
   43.3546750000000         2.850130097066552E-008
   43.4677250000000         2.872585841211229E-008
   43.5807750000000         2.895235127852231E-008
   43.6938250000000         2.918075272386236E-008
   43.8068750000000         2.941102543484171E-008
   43.9199250000000         2.964312100931337E-008
   44.0329750000000         2.987697941878519E-008
   44.1460250000000         3.011252880482640E-008
   44.2590750000000         3.034968535315425E-008
   44.3721250000000         3.058835359786882E-008
   44.4851750000000         3.082842726447525E-008
   44.5982250000000         3.106979042891989E-008
   44.7112750000000         3.131231914911812E-008
   44.8243250000000         3.155588354935079E-008
   44.9373750000000         3.180035073504862E-008
   45.0504250000000         3.204558791863142E-008
   45.1634750000000         3.229146571055590E-008
   45.2765250000000         3.253786186941161E-008
   45.3895750000000         3.278466513183551E-008
   45.5026250000000         3.303177880646838E-008
   45.6156750000000         3.327912407183510E-008
   45.7287250000000         3.352664292399465E-008
   45.8417750000000         3.377430033266083E-008
   45.9548250000000         3.402208559312690E-008
   46.0678750000000         3.427001265834543E-008
   46.1809250000000         3.451811938902116E-008
   46.2939750000000         3.476646576689133E-008
   46.4070250000000         3.501513091388204E-008
   46.5200750000000         3.526420889422378E-008
   46.6331250000000         3.551380376968056E-008
   46.7461750000000         3.576402388015438E-008
   46.8592250000000         3.601497534271947E-008
   46.9722750000000         3.626675549740119E-008
   47.0853250000000         3.651944647211789E-008
   47.1983750000000         3.677310902416500E-008
   47.3114250000000         3.702777723616310E-008
   47.4244750000000         3.728345423310942E-008
   47.5375250000000         3.754010944057445E-008
   47.6505750000000         3.779767757041364E-008
   47.7636250000000         3.805605938592550E-008
   47.8766750000000         3.831512468306783E-008
   47.9897250000000         3.857471737365886E-008
   48.1027750000000         3.883466257190049E-008
   48.2158250000000         3.909477559755575E-008
   48.3288750000000         3.935487264447149E-008
   48.4419250000000         3.961478251740264E-008
   48.5549750000000         3.987435927102297E-008
   48.6680250000000         4.013349501859324E-008
   48.7810750000000         4.039213230853583E-008
   48.8941250000000         4.065027541817961E-008
   49.0071750000000         4.090799970931428E-008
   49.1202250000000         4.116545871666872E-008
   49.2332750000000         4.142288816757451E-008
   49.3463250000000         4.168060625532216E-008
   49.4593750000000         4.193901017319811E-008
   49.5724250000000         4.219856854380704E-008
   49.6854750000000         4.245980935656195E-008
   49.7985250000000         4.272330382314265E-008
   49.9115750000000         4.298964642391098E-008
   50.0246250000000         4.325943181489415E-008
   50.1376750000000         4.353322900153511E-008
   50.2507250000000         4.381155386967888E-008
   50.3637750000000         4.409484141199543E-008
   50.4768250000000         4.438341849461606E-008
   50.5898750000000         4.467747832172998E-008
   50.7029250000000         4.497705837657876E-008
   50.8159750000000         4.528202297176932E-008
   50.9290250000000         4.559205122523328E-008
   51.0420750000000         4.590663203247022E-008
   51.1551250000000         4.622506684675594E-008
   51.2681750000000         4.654648046159071E-008
   51.3812250000000         4.686984043853094E-008
   51.4942750000000         4.719398534320373E-008
   51.6073250000000         4.751766095852955E-008
   51.7203750000000         4.783956402669863E-008
   51.8334250000000         4.815839214281599E-008
   51.9464750000000         4.847289833463762E-008
   52.0595250000000         4.878194869362810E-008
   52.1725750000000         4.908458073837865E-008
   52.2856250000000         4.938006006890442E-008
   52.3986750000000         4.966793271618494E-008
   52.5117250000000         4.994807084761100E-008
   52.6247750000000         5.022070929154469E-008
   52.7378250000000         5.048647040021770E-008
   52.8508750000000         5.074637503777803E-008
   52.9639250000000         5.100183825626504E-008
   53.0769750000000         5.125464825982184E-008
   53.1900250000000         5.150692807670596E-008
   53.3030750000000         5.176107984713144E-008
   53.4161250000000         5.201971243513836E-008
   53.5291750000000         5.228555412350693E-008
   53.6422250000000         5.256135219766065E-008
   53.7552750000000         5.284976274108614E-008
   53.8683250000000         5.315323398417334E-008
   53.9813750000000         5.347388757015184E-008
   54.0944250000000         5.381340261355097E-008
   54.2074750000000         5.417290723966161E-008
   54.3205250000000         5.455288274553459E-008
   54.4335750000000         5.495308555638204E-008
   54.5466250000000         5.537249180466355E-008
   54.6596750000000         5.580926867957896E-008
   54.7727250000000         5.626077626266495E-008
   54.8857750000000         5.672360223021294E-008
   54.9988250000000         5.719363118280941E-008
   55.1118750000000         5.766614876686289E-008
   55.2249250000000         5.813597945483025E-008
   55.3379750000000         5.859765523239866E-008
   55.4510250000000         5.904561121523430E-008
   55.5640750000000         5.947440283800932E-008
   55.6771250000000         5.987893732209974E-008
   55.7901750000000         6.025471143306504E-008
   55.9032250000000         6.059804656591026E-008
   56.0162750000000         6.090631135397938E-008
   56.1293250000000         6.117812172175629E-008
   56.2423750000000         6.141350824245063E-008
   56.3554250000000         6.161404144358930E-008
   56.4684750000000         6.178290611070668E-008
   56.5815250000000         6.192491700945431E-008
   56.6945750000000         6.204647076257072E-008
   56.8076250000000         6.215543004267050E-008
   56.9206750000000         6.226093871266062E-008
   57.0337250000000         6.237316971838643E-008
   57.1467750000000         6.250300990193137E-008
   57.2598250000000         6.266168879187328E-008
   57.3728750000000         6.286036178122645E-008
   57.4859250000000         6.310966037215550E-008
   57.5989750000000         6.341922430691584E-008
   57.7120250000000         6.379723316240953E-008
   57.8250750000000         6.424995611172928E-008
   57.9381250000000         6.478133870226940E-008
   58.0511750000000         6.539264679833448E-008
   58.1642250000000         6.608218641892953E-008
   58.2772750000000         6.684511682671975E-008
   58.3903250000000         6.767337202704118E-008
   58.5033750000000         6.855570289958899E-008
   58.6164250000000         6.947784812511487E-008
   58.7294750000000         7.042283764727157E-008
   58.8425250000000         7.137142753152716E-008
   58.9555750000000         7.230265980868300E-008
   59.0686250000000         7.319453541775017E-008
   59.1816750000000         7.402478275387006E-008
   59.2947250000000         7.477169962606985E-008
   59.4077750000000         7.541504087171179E-008
   59.5208250000000         7.593692093811689E-008
   59.6338750000000         7.632269731872651E-008
   59.7469250000000         7.656179849189525E-008
   59.8599750000000         7.664845973770042E-008
   59.9730250000000         7.658233092648548E-008
   60.0860750000000         7.636892274818027E-008
   60.1991250000000         7.601986132395954E-008
   60.3121750000000         7.555292630462014E-008
   60.4252250000000         7.499185478268383E-008
   60.5382750000000         7.436590049956271E-008
   60.6513250000000         7.370914651122461E-008
   60.7643750000000         7.305957965256845E-008
   60.8774250000000         7.245794427373399E-008
   60.9904750000000         7.194640313419217E-008
   61.1035250000000         7.156704301353752E-008
   61.2165750000000         7.136027042288551E-008
   61.3296250000000         7.136315152523458E-008
   61.4426750000000         7.160775613606249E-008
   61.5557250000000         7.211956938542956E-008
   61.6687750000000         7.291603729490503E-008
   61.7818250000000         7.400531168106473E-008
   61.8948750000000         7.538525690288155E-008
   62.0079250000000         7.704277520898235E-008
   62.1209750000000         7.895349937132438E-008
   62.2340250000000         8.108189058493380E-008
   62.3470750000000         8.338176631006293E-008
   62.4601250000000         8.579726863781585E-008
   62.5731750000000         8.826426656475461E-008
   62.6862250000000         9.071216921095417E-008
   62.7992750000000         9.306610981204619E-008
   62.9123250000000         9.524944261867397E-008
   63.0253750000000         9.718647912549292E-008
   63.1384250000000         9.880537633813029E-008
   63.2514750000000         1.000410777322701E-007
   63.3645250000000         1.008381986043590E-007
   63.4775750000000         1.011537429353035E-007
   63.5906250000000         1.009595372039336E-007
   63.7036750000000         1.002442701885419E-007
   63.8167250000000         9.901503531277525E-008
   63.9297750000000         9.729828429035655E-008
   64.0428250000000         9.514011724706693E-008
   64.1558750000000         9.260585487490224E-008
   64.2689250000000         8.977886180636914E-008
   64.3819750000000         8.675861757114719E-008
   64.4950250000000         8.365805933920214E-008
   64.6080750000000         8.060025004937595E-008
   64.7211250000000         7.771445502335141E-008
   64.8341750000000         7.513173756010099E-008
   64.9472250000000         7.298021003435066E-008
   65.0602750000000         7.138009859083557E-008
   65.1733250000000         7.043879651356569E-008
   65.2863750000000         7.024609352199886E-008
   65.3994250000000         7.086977321125228E-008
   65.5124750000000         7.235176868588278E-008