 -0.847875000000000         9.354558435990084E-020
 -0.734825000000000         7.555391735258017E-018
 -0.621775000000000         5.500423481711877E-017
 -0.508725000000000         2.740572580393665E-016
 -0.395675000000000         1.098630463309072E-015
 -0.282625000000000         3.710288820339155E-015
 -0.169575000000000         1.079297579803828E-014
 -5.652500000000005E-002    2.751216954863543E-014
  5.652499999999994E-002    6.247604692495748E-014
  0.169575000000000         1.284447497109069E-013
  0.282625000000000         2.427975700084137E-013
  0.395675000000000         4.278913781160029E-013
  0.508725000000000         7.112187482685441E-013
  0.621775000000000         1.125473013646909E-012
  0.734825000000000         1.707805168329155E-012
  0.847875000000000         2.499029173623990E-012
  0.960925000000000         3.541547284404049E-012
   1.07397500000000         4.878404368409741E-012
   1.18702500000000         6.550677084770435E-012
   1.30007500000000         8.596378093914113E-012
   1.41312500000000         1.104813472848763E-011
   1.52617500000000         1.393154532854606E-011
   1.63922500000000         1.726440083806347E-011
   1.75227500000000         2.105498536486781E-011
   1.86532500000000         2.530046771791118E-011
   1.97837500000000         2.998694963693267E-011
   2.09142500000000         3.508853825034295E-011
   2.20447500000000         4.056685447806103E-011
   2.31752500000000         4.637228872474489E-011
   2.43057500000000         5.244228187427927E-011
   2.54362500000000         5.870567583395219E-011
   2.65667500000000         6.507924231474824E-011
   2.76972500000000         7.147520723840163E-011
   2.88277500000000         7.779645213293229E-011
   2.99582500000000         8.394795679831580E-011
   3.10887500000000         8.982868053457374E-011
   3.22192500000000         9.534440806429238E-011
   3.33497500000000         1.004032584062066E-010
   3.44802500000000         1.049245606382769E-010
   3.56107500000000         1.088391940159467E-010
   3.67412500000000         1.120897552841510E-010
   3.78717500000000         1.146361586779783E-010
   3.90022500000000         1.164588816267956E-010
   4.01327500000000         1.175514947772846E-010
   4.12632500000000         1.179314945034545E-010
   4.23937500000000         1.176326451396497E-010
   4.35242500000000         1.167042934504900E-010
   4.46547500000000         1.152168782015503E-010
   4.57852500000000         1.132450619015721E-010
   4.69157500000000         1.108779414016666E-010
   4.80462500000000         1.082108357966102E-010
   4.91767500000000         1.053393333594624E-010
   5.03072500000000         1.023610713841637E-010
   5.14377500000000         9.936758085530382E-011
   5.25682500000000         9.644270130621716E-011
   5.36987500000000         9.366124814542436E-011
   5.48292500000000         9.108707847227776E-011
   5.59597500000000         8.877078854891165E-011
   5.70902500000000         8.674977398831223E-011
   5.82207500000000         8.504870430084271E-011
   5.93512500000000         8.367735971902337E-011
   6.04817500000000         8.263922485216594E-011
   6.16122500000000         8.192475575507644E-011
   6.27427500000000         8.151858927146946E-011
   6.38732500000000         8.140179567998923E-011
   6.50037500000000         8.155235976766864E-011
   6.61342500000000         8.194994178420180E-011
   6.72647500000000         8.257653461868197E-011
   6.83952500000000         8.342006458348756E-011
   6.95257500000000         8.447144012956886E-011
   7.06562500000000         8.573555665727712E-011
   7.17867500000000         8.721974381359237E-011
   7.29172500000000         8.894216643745404E-011
   7.40477500000000         9.092956790886917E-011
   7.51782500000000         9.321067026426521E-011
   7.63087500000000         9.582465735270294E-011
   7.74392500000000         9.880493180779355E-011
   7.85697500000000         1.021908811119981E-010
   7.97002500000000         1.060122674551547E-010
   8.08307500000000         1.102964420299403E-010
   8.19612500000000         1.150577548071659E-010
   8.30917500000000         1.202961274439223E-010
   8.42222500000000         1.260008987336365E-010
   8.53527500000000         1.321407319505413E-010
   8.64832500000000         1.386687980685131E-010
   8.76137500000000         1.455192651885176E-010
   8.87442500000000         1.526113957037689E-010
   8.98747500000000         1.598474724634022E-010
   9.10052500000000         1.671193357872804E-010
   9.21357500000000         1.743091923607071E-010
   9.32662500000000         1.812949601321508E-010
   9.43967500000000         1.879578775807715E-010
   9.55272500000000         1.941807004104360E-010
   9.66577500000000         1.998574757629318E-010
   9.77882500000000         2.048974874751892E-010
   9.89187500000000         2.092257086934718E-010
   10.0049250000000         2.127894743965670E-010
   10.1179750000000         2.155599329453222E-010
   10.2310250000000         2.175324196908217E-010
   10.3440750000000         2.187259508934271E-010
   10.4571250000000         2.191814155279931E-010
   10.5701750000000         2.189610714432617E-010
   10.6832250000000         2.181466648503299E-010
   10.7962750000000         2.168284060465399E-010
   10.9093250000000         2.151107510346066E-010
   11.0223750000000         2.130982159370208E-010
   11.1354250000000         2.108972830206621E-010
   11.2484750000000         2.086110142581449E-010
   11.3615250000000         2.063297884246422E-010
   11.4745750000000         2.041375497180485E-010
   11.5876250000000         2.020995653795475E-010
   11.7006750000000         2.002690173319780E-010
   11.8137250000000         1.986801449497423E-010
   11.9267750000000         1.973563260396042E-010
   12.0398250000000         1.963020817054914E-010
   12.1528750000000         1.955148568273528E-010
   12.2659250000000         1.949805783769012E-010
   12.3789750000000         1.946819460099097E-010
   12.4920250000000         1.945975549486074E-010
   12.6050750000000         1.947100384601919E-010
   12.7181250000000         1.950054055976939E-010
   12.8311750000000         1.954807656051401E-010
   12.9442250000000         1.961408595643119E-010
   13.0572750000000         1.970035578579393E-010
   13.1703250000000         1.980981626722323E-010
   13.2833750000000         1.994681791497497E-010
   13.3964250000000         2.011679820711766E-010
   13.5094750000000         2.032573427512985E-010
   13.6225250000000         2.058066927150409E-010
   13.7355750000000         2.088852185836869E-010
   13.8486250000000         2.125582295095434E-010
   13.9616750000000         2.168867420440489E-010
   14.0747250000000         2.219157535243282E-010
   14.1877750000000         2.276766687256577E-010
   14.3008250000000         2.341785556783252E-010
   14.4138750000000         2.414050101332302E-010
   14.5269250000000         2.493158582419122E-010
   14.6399750000000         2.578398633351078E-010
   14.7530250000000         2.668833464847718E-010
   14.8660750000000         2.763244974296533E-010
   14.9791250000000         2.860204175883254E-010
   15.0921750000000         2.958093140144852E-010
   15.2052250000000         3.055199513955532E-010
   15.3182750000000         3.149738815850739E-010
   15.4313250000000         3.239951790756650E-010
   15.5443750000000         3.324170050147532E-010
   15.6574250000000         3.400867881271085E-010
   15.7704750000000         3.468780034832851E-010
   15.8835250000000         3.526912921900327E-010
   15.9965750000000         3.574602497263864E-010
   16.1096250000000         3.611539848653430E-010
   16.2226750000000         3.637801396847927E-010
   16.3357250000000         3.653853494349017E-010
   16.4487750000000         3.660487569510653E-010
   16.5618250000000         3.658843819559208E-010
   16.6748750000000         3.650318802943096E-010
   16.7879250000000         3.636526188953969E-010
   16.9009750000000         3.619249203189071E-010
   17.0140250000000         3.600274156332767E-010
   17.1270750000000         3.581436400780401E-010
   17.2401250000000         3.564438594245416E-010
   17.3531750000000         3.550875871445609E-010
   17.4662250000000         3.542060467146729E-010
   17.5792750000000         3.539081523324550E-010
   17.6923250000000         3.542709060417203E-010
   17.8053750000000         3.553349974442697E-010
   17.9184250000000         3.571100489892039E-010
   18.0314750000000         3.595713858147831E-010
   18.1445250000000         3.626601095225826E-010
   18.2575750000000         3.662907038527452E-010
   18.3706250000000         3.703560431996473E-010
   18.4836750000000         3.747253295226096E-010
   18.5967250000000         3.792618891871846E-010
   18.7097750000000         3.838180681505829E-010
   18.8228250000000         3.882519398077313E-010
   18.9358750000000         3.924260333778116E-010
   19.0489250000000         3.962190880628891E-010
   19.1619750000000         3.995276834969810E-010
   19.2750250000000         4.022747310153246E-010
   19.3880750000000         4.044058591425242E-010
   19.5011250000000         4.059016207514138E-010
   19.6141750000000         4.067676253785607E-010
   19.7272250000000         4.070444267483018E-010
   19.8402750000000         4.067918269184660E-010
   19.9533250000000         4.061053790885487E-010
   20.0663750000000         4.050921281933560E-010
   20.1794250000000         4.038815154397727E-010
   20.2924750000000         4.026089285357926E-010
   20.4055250000000         4.014191674162456E-010
   20.5185750000000         4.004530747493786E-010
   20.6316250000000         3.998472012820143E-010
   20.7446750000000         3.997288340180755E-010
   20.8577250000000         4.002073872137866E-010
   20.9707750000000         4.013775871571761E-010
   21.0838250000000         4.033097136097909E-010
   21.1968750000000         4.060542009768633E-010
   21.3099250000000         4.096409665507705E-010
   21.4229750000000         4.140738835819747E-010
   21.5360250000000         4.193376325175802E-010
   21.6490750000000         4.253989782376941E-010
   21.7621250000000         4.322080622945597E-010
   21.8751750000000         4.396989705983829E-010
   21.9882250000000         4.477977415147552E-010
   22.1012750000000         4.564211446540734E-010
   22.2143250000000         4.654814232572078E-010
   22.3273750000000         4.748876394362483E-010
   22.4404250000000         4.845495618521886E-010
   22.5534750000000         4.943786330439567E-010
   22.6665250000000         5.042902938521910E-010
   22.7795750000000         5.142049633923608E-010
   22.8926250000000         5.240483209482897E-010
   23.0056750000000         5.337544708257260E-010
   23.1187250000000         5.432636150142870E-010
   23.2317750000000         5.525249594034060E-010
   23.3448250000000         5.614957316614255E-010
   23.4578750000000         5.701382921294978E-010
   23.5709250000000         5.784262085821913E-010
   23.6839750000000         5.863378125141511E-010
   23.7970250000000         5.938612069875062E-010
   23.9100750000000         6.009887910144142E-010
   24.0231250000000         6.077204288762747E-010
   24.1361750000000         6.140598866436310E-010
   24.2492250000000         6.200176824293652E-010
   24.3622750000000         6.256077910789735E-010
   24.4753250000000         6.308488002385690E-010
   24.5883750000000         6.357609014221000E-010
   24.7014250000000         6.403703695054362E-010
   24.8144750000000         6.447019833483359E-010
   24.9275250000000         6.487861845470317E-010
   25.0405750000000         6.526548185341262E-010
   25.1536250000000         6.563425956459316E-010
   25.2666750000000         6.598860428153827E-010
   25.3797250000000         6.633254055080735E-010
   25.4927750000000         6.667033616016643E-010
   25.6058250000000         6.700656147082006E-010
   25.7188750000000         6.734607139429379E-010
   25.8319250000000         6.769393507852363E-010
   25.9449750000000         6.805580776416063E-010
   26.0580250000000         6.843699218576879E-010
   26.1710750000000         6.884346189654096E-010
   26.2841250000000         6.928112390191355E-010
   26.3971750000000         6.975575111137515E-010
   26.5102250000000         7.027314422735810E-010
   26.6232750000000         7.083880710782405E-010
   26.7363250000000         7.145790006611666E-010
   26.8493750000000         7.213517859832737E-010
   26.9624250000000         7.287488630111128E-010
   27.0754750000000         7.368022940109875E-010
   27.1885250000000         7.455400492284825E-010
   27.3015750000000         7.549763479782918E-010
   27.4146250000000         7.651203977225001E-010
   27.5276750000000         7.759643622249053E-010
   27.6407250000000         7.874930518892419E-010
   27.7537750000000         7.996758479104055E-010
   27.8668250000000         8.124680676946985E-010
   27.9798750000000         8.258133760648320E-010
   28.0929250000000         8.396414630456887E-010
   28.2059750000000         8.538692222852524E-010
   28.3190250000000         8.684010441600133E-010
   28.4320750000000         8.831300096390259E-010
   28.5451250000000         8.979412285138555E-010
   28.6581750000000         9.127112464964318E-010
   28.7712250000000         9.273123653040795E-010
   28.8842750000000         9.416147351503342E-010
   28.9973250000000         9.554919690027027E-010
   29.1103750000000         9.688183262900126E-010
   29.2234250000000         9.814797827074311E-010
   29.3364750000000         9.933723874250053E-010
   29.4495250000000         1.004403585821535E-009
   29.5625750000000         1.014502240233969E-009
   29.6756250000000         1.023610638239891E-009
   29.7886750000000         1.031696050682272E-009
   29.9017250000000         1.038744694361116E-009
   30.0147750000000         1.044761614814742E-009
   30.1278250000000         1.049776513087211E-009
   30.2408750000000         1.053832872979505E-009
   30.3539250000000         1.056995175395129E-009
   30.4669750000000         1.059338851612116E-009
   30.5800250000000         1.060954097287570E-009
   30.6930750000000         1.061936870093612E-009
   30.8061250000000         1.062388717414184E-009
   30.9191750000000         1.062415161127969E-009
   31.0322250000000         1.062117509933869E-009
   31.1452750000000         1.061597343875845E-009
   31.2583250000000         1.060946255126303E-009
   31.3713750000000         1.060250341598762E-009
   31.4844250000000         1.059586061947311E-009
   31.5974750000000         1.059018730527195E-009
   31.7105250000000         1.058604400588537E-009
   31.8235750000000         1.058386565443005E-009
   31.9366250000000         1.058400508004584E-009
   32.0496750000000         1.058670320576649E-009
   32.1627250000000         1.059213300641869E-009
   32.2757750000000         1.060038769471820E-009
   32.3888250000000         1.061151036366824E-009
   32.5018750000000         1.062552110644658E-009
   32.6149250000000         1.064241865314002E-009
   32.7279750000000         1.066215192526581E-009
   32.8410250000000         1.068475835368904E-009
   32.9540750000000         1.071023614581396E-009
   33.0671250000000         1.073865014002050E-009
   33.1801750000000         1.077007891284427E-009
   33.2932250000000         1.080465699932983E-009
   33.4062750000000         1.084252780678552E-009
   33.5193250000000         1.088387257244810E-009
   33.6323750000000         1.092889343958681E-009
   33.7454250000000         1.097777665327928E-009
   33.8584750000000         1.103069333822020E-009
   33.9715250000000         1.108778646689314E-009
   34.0845750000000         1.114913500993424E-009
   34.1976250000000         1.121472946870291E-009
   34.3106750000000         1.128450554582710E-009
   34.4237250000000         1.135828805462083E-009
   34.5367750000000         1.143577490441118E-009
   34.6498250000000         1.151658278728143E-009
   34.7628750000000         1.160022365897896E-009
   34.8759250000000         1.168611425835348E-009
   34.9889750000000         1.177359297064991E-009
   35.1020250000000         1.186196300046998E-009
   35.2150750000000         1.195047485828469E-009
   35.3281250000000         1.203840579473476E-009
   35.4411750000000         1.212504905716630E-009
   35.5542250000000         1.220975484864754E-009
   35.6672750000000         1.229196121130579E-009
   35.7803250000000         1.237124240085458E-009
   35.8933750000000         1.244726534137001E-009
   36.0064250000000         1.251990056207485E-009
   36.1194750000000         1.258912539423958E-009
   36.2325250000000         1.265514357259368E-009
   36.3455750000000         1.271828489595854E-009
   36.4586250000000         1.277905691503535E-009
   36.5716750000000         1.283810560923542E-009
   36.6847250000000         1.289622982713581E-009
   36.7977750000000         1.295428119323464E-009
   36.9108250000000         1.301323494055256E-009
   37.0238750000000         1.307410417966086E-009
   37.1369250000000         1.313786087869810E-009
   37.2499750000000         1.320551828122505E-009
   37.3630250000000         1.327795891833298E-009
   37.4760750000000         1.335601711555258E-009
   37.5891250000000         1.344035591998320E-009
   37.7021750000000         1.353151207346255E-009
   37.8152250000000         1.362978935406051E-009
   37.9282750000000         1.373532190744091E-009
   38.0413250000000         1.384802641287192E-009
   38.1543750000000         1.396759277473691E-009
   38.2674250000000         1.409349489545492E-009
   38.3804750000000         1.422501901130723E-009
   38.4935250000000         1.436126051564039E-009
   38.6065750000000         1.450119230993300E-009
   38.7196250000000         1.464364180584529E-009
   38.8326750000000         1.478739274659587E-009
   38.9457250000000         1.493117509422417E-009
   39.0587750000000         1.507376486603528E-009
   39.1718250000000         1.521400427643319E-009
   39.2848750000000         1.535080231495148E-009
   39.3979250000000         1.548327496590477E-009
   39.5109750000000         1.561066588833809E-009
   39.6240250000000         1.573244510928704E-009
   39.7370750000000         1.584830638620800E-009
   39.8501250000000         1.595816148512825E-009
   39.9631750000000         1.606215946249975E-009
   40.0762250000000         1.616067219562926E-009
   40.1892750000000         1.625426226097353E-009
   40.3023250000000         1.634367084739990E-009
   40.4153750000000         1.642977538569032E-009
   40.5284250000000         1.651359205704036E-009
   40.6414750000000         1.659618060799271E-009
   40.7545250000000         1.667863616755547E-009
   40.8675750000000         1.676208333937647E-009
   40.9806250000000         1.684756473249110E-009
   41.0936750000000         1.693609039826455E-009
   41.2067250000000         1.702853419494636E-009
   41.3197750000000         1.712570310510381E-009
   41.4328250000000         1.722820385086241E-009
   41.5458750000000         1.733653916810792E-009
   41.6589250000000         1.745104761633727E-009
   41.7719750000000         1.757191569943568E-009
   41.8850250000000         1.769919041538431E-009
   41.9980750000000         1.783279146709319E-009
   42.1111250000000         1.797250016209931E-009
   42.2241750000000         1.811800484841655E-009
   42.3372250000000         1.826890167965436E-009
   42.4502750000000         1.842471889509782E-009
   42.5633250000000         1.858494624939466E-009
   42.6763750000000         1.874898866262653E-009
   42.7894250000000         1.891624010824422E-009
   42.9024750000000         1.908606895796081E-009
   43.0155250000000         1.925781496845901E-009
   43.1285750000000         1.943079114852282E-009
   43.2416250000000         1.960426015651563E-009
   43.3546750000000         1.977746959193402E-009
   43.4677250000000         1.994963194663648E-009
   43.5807750000000         2.011987117764763E-009
   43.6938250000000         2.028728412355556E-009
   43.8068750000000         2.045092215319806E-009
   43.9199250000000         2.060977213634820E-009
   44.0329750000000         2.076279035313930E-009
   44.1460250000000         2.090892765503456E-009
   44.2590750000000         2.104711804648684E-009
   44.3721250000000         2.117636620200008E-009
   44.4851750000000         2.129575526751448E-009
   44.5982250000000         2.140449496594668E-009
   44.7112750000000         2.150195708150700E-009
   44.8243250000000         2.158772009366697E-009
   44.9373750000000         2.166167144951507E-009
   45.0504250000000         2.172394262970527E-009
   45.1634750000000         2.177500331005187E-009
   45.2765250000000         2.181564841143606E-009
   45.3895750000000         2.184702517085500E-009
   45.5026250000000         2.187056432633482E-009
   45.6156750000000         2.188799655234371E-009
   45.7287250000000         2.190127406411678E-009
   45.8417750000000         2.191250898164669E-009
   45.9548250000000         2.192389269302451E-009
   46.0678750000000         2.193759606744075E-009
   46.1809250000000         2.195567782477036E-009
   46.2939750000000         2.197999274049775E-009
   46.4070250000000         2.201207218488099E-009
   46.5200750000000         2.205302827363341E-009
   46.6331250000000         2.210351758338204E-009
   46.7461750000000         2.216364039517952E-009
   46.8592250000000         2.223290318112976E-009
   46.9722750000000         2.231024669622053E-009
   47.0853250000000         2.239403896794628E-009
   47.1983750000000         2.248213123056991E-009
   47.3114250000000         2.257195315653265E-009
   47.4244750000000         2.266059827138780E-009
   47.5375250000000         2.274501118726328E-009
   47.6505750000000         2.282210598906520E-009
   47.7636250000000         2.288896265522562E-009
   47.8766750000000         2.294302268618782E-009
   47.9897250000000         2.298226534406860E-009
   48.1027750000000         2.300538582649887E-009
   48.2158250000000         2.301195617354649E-009
   48.3288750000000         2.300255898182511E-009
   48.4419250000000         2.297884268666847E-009
   48.5549750000000         2.294362588835437E-009
   48.6680250000000         2.290082304048765E-009
   48.7810750000000         2.285544231865961E-009
   48.8941250000000         2.281339618532668E-009
   49.0071750000000         2.278134793403087E-009
   49.1202250000000         2.276646407029153E-009
   49.2332750000000         2.277611901786396E-009
   49.3463250000000         2.281752764248856E-009
   49.4593750000000         2.289745119448038E-009
   49.5724250000000         2.302176518922766E-009
   49.6854750000000         2.319509686383365E-009
   49.7985250000000         2.342046555645851E-009
   49.9115750000000         2.369896845828267E-009
   50.0246250000000         2.402953945559068E-009
   50.1376750000000         2.440870674360723E-009
   50.2507250000000         2.483054458655947E-009
   50.3637750000000         2.528666767643059E-009
   50.4768250000000         2.576633234491248E-009
   50.5898750000000         2.625663574246885E-009
   50.7029250000000         2.674293167880818E-009
   50.8159750000000         2.720923023018110E-009
   50.9290250000000         2.763875799873747E-009
   51.0420750000000         2.801463558586197E-009
   51.1551250000000         2.832058144831863E-009
   51.2681750000000         2.854162374138197E-009
   51.3812250000000         2.866491795525318E-009
   51.4942750000000         2.868048755961201E-009
   51.6073250000000         2.858189462983267E-009
   51.7203750000000         2.836690115417104E-009
   51.8334250000000         2.803789603598281E-009
   51.9464750000000         2.760229712131610E-009
   52.0595250000000         2.707268898933854E-009
   52.1725750000000         2.646681472593025E-009
   52.2856250000000         2.580728178459958E-009
   52.3986750000000         2.512109455870313E-009
   52.5117250000000         2.443894638354587E-009
   52.6247750000000         2.379430331724070E-009
   52.7378250000000         2.322225726179652E-009
   52.8508750000000         2.275821820221751E-009
   52.9639250000000         2.243651306483200E-009
   53.0769750000000         2.228883033309815E-009
   53.1900250000000         2.234271621871474E-009
   53.3030750000000         2.262000300737614E-009
   53.4161250000000         2.313543051883612E-009
   53.5291750000000         2.389538564543991E-009
   53.6422250000000         2.489684330701201E-009
   53.7552750000000         2.612669378727736E-009
   53.8683250000000         2.756127491457046E-009
   53.9813750000000         2.916647138857180E-009
   54.0944250000000         3.089810948699244E-009
   54.2074750000000         3.270288584439060E-009
   54.3205250000000         3.451967158559278E-009
   54.4335750000000         3.628135642810764E-009
   54.5466250000000         3.791700682381979E-009
   54.6596750000000         3.935444384675163E-009
   54.7727250000000         4.052305868947110E-009
   54.8857750000000         4.135681173034120E-009
   54.9988250000000         4.179735944992501E-009
   55.1118750000000         4.179708266480115E-009
   55.2249250000000         4.132201295083185E-009
   55.3379750000000         4.035437405817466E-009
   55.4510250000000         3.889480468320143E-009
   55.5640750000000         3.696395211025946E-009
   55.6771250000000         3.460340465054002E-009
   55.7901750000000         3.187587194659209E-009
   55.9032250000000         2.886453191811145E-009
   56.0162750000000         2.567147658593298E-009
   56.1293250000000         2.241527578503973E-009
   56.2423750000000         1.922762924712873E-009
   56.3554250000000         1.624927497908436E-009
   56.4684750000000         1.362505799170553E-009
   56.5815250000000         1.149849773542756E-009
   56.6945750000000         1.000592563766603E-009
   56.8076250000000         9.270373362735030E-010
   56.9206750000000         9.395468298499268E-010
   57.0337250000000         1.045964107360361E-009
   57.1467750000000         1.251075849206491E-009
   57.2598250000000         1.556157940124325E-009
   57.3728750000000         1.958622941842466E-009
   57.4859250000000         2.451789989232843E-009
   57.5989750000000         3.024794438194690E-009
   57.7120250000000         3.662668728433473E-009
   57.8250750000000         4.346582918090893E-009
   57.9381250000000         5.054259019814834E-009
   58.0511750000000         5.760567978240590E-009
   58.1642250000000         6.438275375940208E-009
   58.2772750000000         7.058945460684319E-009
   58.3903250000000         7.593955031512604E-009
   58.5033750000000         8.015613699983155E-009
   58.6164250000000         8.298322178404913E-009
   58.7294750000000         8.419758708931714E-009
   58.8425250000000         8.362017217748569E-009
   58.9555750000000         8.112680299382753E-009
   59.0686250000000         7.665747105609255E-009
   59.1816750000000         7.022396832822744E-009
   59.2947250000000         6.191523949129045E-009
   59.4077750000000         5.190010692921675E-009
   59.5208250000000         4.042719362896317E-009
   59.6338750000000         2.782161320157859E-009
   59.7469250000000         1.447846166241312E-009
   59.8599750000000         8.530280864021759E-011
   59.9730250000000        -1.255206589532346E-009
   60.0860750000000        -2.520258749790633E-009
   60.1991250000000        -3.655087101084234E-009
   60.3121750000000        -4.605594355605717E-009
   60.4252250000000        -5.320482989574529E-009
   60.5382750000000        -5.753453907747527E-009
   60.6513250000000        -5.865369415350494E-009
   60.7643750000000        -5.626304333541752E-009
   60.8774250000000        -5.017399847519262E-009
   60.9904750000000        -4.032421285462170E-009
   61.1035250000000        -2.678947500998291E-009
   61.2165750000000        -9.791257524651502E-010
   61.3296250000000         1.030096161117674E-009
   61.4426750000000         3.297274220623324E-009
   61.5557250000000         5.757360885383802E-009
   61.6687750000000         8.333181520197209E-009
   61.7818250000000         1.093748431190720E-008
   61.8948750000000         1.347552270829310E-008
   62.0079250000000         1.584810942086743E-008
   62.1209750000000         1.795506019155230E-008
   62.2340250000000         1.969891970423594E-008
   62.3470750000000         2.098884190795527E-008
   62.4601250000000         2.174450312084542E-008
   62.5731750000000         2.189986533450623E-008
   62.6862250000000         2.140668302815737E-008
   62.7992750000000         2.023755582353657E-008
   62.9123250000000         1.838841156483658E-008
   63.0253750000000         1.588025728644951E-008
   63.1384250000000         1.276011799240714E-008
   63.2514750000000         9.101030068448383E-009
   63.3645250000000         5.001064086153811E-009
   63.4775750000000         5.813212467856381E-010
   63.5906250000000        -4.017070585483561E-009
   63.7036750000000        -8.636923494864234E-009
   63.8167250000000        -1.310982353329382E-008
   63.9297750000000        -1.726171158247265E-008
   64.0428250000000        -2.091904106307568E-008
   64.1558750000000        -2.391532200043051E-008
   64.2689250000000        -2.609782383827970E-008
   64.3819750000000        -2.733418386135706E-008
   64.4950250000000        -2.751868180772856E-008
   64.6080750000000        -2.657790005562710E-008
   64.7211250000000        -2.447552809164456E-008
   64.8341750000000        -2.121606789686377E-008
   64.9472250000000        -1.684722313808258E-008
   65.0602750000000        -1.146080770694303E-008
   65.1733250000000        -5.192037534452718E-009
   65.2863750000000         1.782873596959174E-009
   65.3994250000000         9.250822807346953E-009
   65.5124750000000         1.696758452800027E-008