 -0.847875000000000        -4.615359200146835E-025
 -0.734825000000000         1.578419374954528E-023
 -0.621775000000000         1.605424530828196E-022
 -0.508725000000000         9.381586365765315E-022
 -0.395675000000000         4.226010758462511E-021
 -0.282625000000000         1.588989233203023E-020
 -0.169575000000000         5.154530106474812E-020
 -5.652500000000005E-002    1.471554786200643E-019
  5.652499999999994E-002    3.756101838189521E-019
  0.169575000000000         8.693858440048041E-019
  0.282625000000000         1.848459672784813E-018
  0.395675000000000         3.652577420954605E-018
  0.508725000000000         6.776328525205028E-018
  0.621775000000000         1.190528488000805E-017
  0.734825000000000         1.995003856533401E-017
  0.847875000000000         3.207578552140727E-017
  0.960925000000000         4.972332733099222E-017
   1.07397500000000         7.462028208524345E-017
   1.18702500000000         1.087827407886680E-016
   1.30007500000000         1.545058545289503E-016
   1.41312500000000         2.143429790403318E-016
   1.52617500000000         2.910723503146144E-016
   1.63922500000000         3.876564391741254E-016
   1.75227500000000         5.071930778335456E-016
   1.86532500000000         6.528535392919222E-016
   1.97837500000000         8.278160634371640E-016
   2.09142500000000         1.035195160450625E-015
   2.20447500000000         1.277963445797048E-015
   2.31752500000000         1.558871715284857E-015
   2.43057500000000         1.880370501959797E-015
   2.54362500000000         2.244537422596231E-015
   2.65667500000000         2.652999548364502E-015
   2.76972500000000         3.106873971822068E-015
   2.88277500000000         3.606711437073112E-015
   2.99582500000000         4.152456343364677E-015
   3.10887500000000         4.743421559614451E-015
   3.22192500000000         5.378280735983344E-015
   3.33497500000000         6.055080070933289E-015
   3.44802500000000         6.771260192599638E-015
   3.56107500000000         7.523719833638503E-015
   3.67412500000000         8.308876282732209E-015
   3.78717500000000         9.122747260373406E-015
   3.90022500000000         9.961057397821376E-015
   4.01327500000000         1.081934135923613E-014
   4.12632500000000         1.169305864175275E-014
   4.23937500000000         1.257771687223890E-014
   4.35242500000000         1.346897956461462E-014
   4.46547500000000         1.436278005056132E-014
   4.57852500000000         1.525541382935483E-014
   4.69157500000000         1.614360896459320E-014
   4.80462500000000         1.702460060704126E-014
   4.91767500000000         1.789616671499311E-014
   5.03072500000000         1.875664634503197E-014
   5.14377500000000         1.960494043920211E-014
   5.25682500000000         2.044048601263243E-014
   5.36987500000000         2.126321148296319E-014
   5.48292500000000         2.207348713718008E-014
   5.59597500000000         2.287206002849181E-014
   5.70902500000000         2.365997397156550E-014
   5.82207500000000         2.443849139199137E-014
   5.93512500000000         2.520901380662942E-014
   6.04817500000000         2.597301979685781E-014
   6.16122500000000         2.673199613043004E-014
   6.27427500000000         2.748737599978246E-014
   6.38732500000000         2.824051616835685E-014
   6.50037500000000         2.899267590830334E-014
   6.61342500000000         2.974500362019420E-014
   6.72647500000000         3.049855249232817E-014
   6.83952500000000         3.125430991094827E-014
   6.95257500000000         3.201322818907226E-014
   7.06562500000000         3.277627674067114E-014
   7.17867500000000         3.354450471987098E-014
   7.29172500000000         3.431909434359134E-014
   7.40477500000000         3.510141337664041E-014
   7.51782500000000         3.589306641552743E-014
   7.63087500000000         3.669594620682680E-014
   7.74392500000000         3.751224951218564E-014
   7.85697500000000         3.834448043266557E-014
   7.97002500000000         3.919544449659635E-014
   8.08307500000000         4.006821166391641E-014
   8.19612500000000         4.096606381490484E-014
   8.30917500000000         4.189240914482623E-014
   8.42222500000000         4.285068356945080E-014
   8.53527500000000         4.384424212398536E-014
   8.64832500000000         4.487623544721060E-014
   8.76137500000000         4.594947744600923E-014
   8.87442500000000         4.706631688023198E-014
   8.98747500000000         4.822851946576628E-014
   9.10052500000000         4.943715627529028E-014
   9.21357500000000         5.069251862835112E-014
   9.32662500000000         5.199405787152483E-014
   9.43967500000000         5.334036449288075E-014
   9.55272500000000         5.472917175681604E-014
   9.66577500000000         5.615738621530218E-014
   9.77882500000000         5.762117044576021E-014
   9.89187500000000         5.911604453508514E-014
   10.0049250000000         6.063701097438000E-014
   10.1179750000000         6.217872105733170E-014
   10.2310250000000         6.373564644658007E-014
   10.3440750000000         6.530225035638057E-014
   10.4571250000000         6.687316223477636E-014
   10.5701750000000         6.844334735808458E-014
   10.6832250000000         7.000826466574093E-014
   10.7962750000000         7.156398595282136E-014
   10.9093250000000         7.310730024755489E-014
   11.0223750000000         7.463577898546144E-014
   11.1354250000000         7.614780356286420E-014
   11.2484750000000         7.764257845466761E-014
   11.3615250000000         7.912008007921680E-014
   11.4745750000000         8.058099631090435E-014
   11.5876250000000         8.202664185865513E-014
   11.7006750000000         8.345883302770988E-014
   11.8137250000000         8.487976838869873E-014
   11.9267750000000         8.629190772470268E-014
   12.0398250000000         8.769783061140514E-014
   12.1528750000000         8.910011727089598E-014
   12.2659250000000         9.050125022739517E-014
   12.3789750000000         9.190352382637569E-014
   12.4920250000000         9.330898209624804E-014
   12.6050750000000         9.471937848634341E-014
   12.7181250000000         9.613617451379861E-014
   12.8311750000000         9.756056484869011E-014
   12.9442250000000         9.899351966899626E-014
   13.0572750000000         1.004358492241544E-013
   13.1703250000000         1.018882862610276E-013
   13.2833750000000         1.033515829605114E-013
   13.3964250000000         1.048266179027821E-013
   13.5094750000000         1.063144775755819E-013
   13.6225250000000         1.078165457216234E-013
   13.7355750000000         1.093345787487867E-013
   13.8486250000000         1.108707398056840E-013
   13.9616750000000         1.124276204382295E-013
   14.0747250000000         1.140082209738391E-013
   14.1877750000000         1.156159056371263E-013
   14.3008250000000         1.172543252419648E-013
   14.4138750000000         1.189273012246597E-013
   14.5269250000000         1.206386978984388E-013
   14.6399750000000         1.223922570346826E-013
   14.7530250000000         1.241914423191739E-013
   14.8660750000000         1.260392785097227E-013
   14.9791250000000         1.279381789635493E-013
   15.0921750000000         1.298898004165611E-013
   15.2052250000000         1.318949278326781E-013
   15.3182750000000         1.339533908456877E-013
   15.4313250000000         1.360640081493437E-013
   15.5443750000000         1.382245861242794E-013
   15.6574250000000         1.404319588356053E-013
   15.7704750000000         1.426820744957061E-013
   15.8835250000000         1.449701299187086E-013
   15.9965750000000         1.472907326414273E-013
   16.1096250000000         1.496380979994868E-013
   16.2226750000000         1.520062672136254E-013
   16.3357250000000         1.543893441182340E-013
   16.4487750000000         1.567817276036093E-013
   16.5618250000000         1.591783295963775E-013
   16.6748750000000         1.615747793628031E-013
   16.7879250000000         1.639675965314127E-013
   16.9009750000000         1.663543334058087E-013
   17.0140250000000         1.687336500439827E-013
   17.1270750000000         1.711053649782714E-013
   17.2401250000000         1.734704499107812E-013
   17.3531750000000         1.758309698947540E-013
   17.4662250000000         1.781899737726670E-013
   17.5792750000000         1.805513415313732E-013
   17.6923250000000         1.829196161423423E-013
   17.8053750000000         1.852997827420739E-013
   17.9184250000000         1.876970322351502E-013
   18.0314750000000         1.901165391531091E-013
   18.1445250000000         1.925632142393055E-013
   18.2575750000000         1.950414775234575E-013
   18.3706250000000         1.975550675723316E-013
   18.4836750000000         2.001068629080090E-013
   18.5967250000000         2.026987486982899E-013
   18.7097750000000         2.053315228001017E-013
   18.8228250000000         2.080048524015824E-013
   18.9358750000000         2.107172798244703E-013
   19.0489250000000         2.134662729375973E-013
   19.1619750000000         2.162483214838477E-013
   19.2750250000000         2.190590784094982E-013
   19.3880750000000         2.218935323484050E-013
   19.5011250000000         2.247462120886844E-013
   19.6141750000000         2.276114085161255E-013
   19.7272250000000         2.304834097813569E-013
   19.8402750000000         2.333567207840430E-013
   19.9533250000000         2.362262970197624E-013
   20.0663750000000         2.390877574195065E-013
   20.1794250000000         2.419375503052481E-013
   20.2924750000000         2.447731070352465E-013
   20.4055250000000         2.475929514611705E-013
   20.5185750000000         2.503967646346584E-013
   20.6316250000000         2.531854087021284E-013
   20.7446750000000         2.559609144425808E-013
   20.8577250000000         2.587264233887527E-013
   20.9707750000000         2.614860964169819E-013
   21.0838250000000         2.642449852188312E-013
   21.1968750000000         2.670088833876136E-013
   21.3099250000000         2.697841695127907E-013
   21.4229750000000         2.725776209312233E-013
   21.5360250000000         2.753962253665412E-013
   21.6490750000000         2.782470118836160E-013
   21.7621250000000         2.811368788376223E-013
   21.8751750000000         2.840724283518713E-013
   21.9882250000000         2.870598304753939E-013
   22.1012750000000         2.901047065034575E-013
   22.2143250000000         2.932120322263503E-013
   22.3273750000000         2.963860623381659E-013
   22.4404250000000         2.996302835188810E-013
   22.5534750000000         3.029473919089416E-013
   22.6665250000000         3.063392945356491E-013
   22.7795750000000         3.098071257509795E-013
   22.8926250000000         3.133512799931093E-013
   23.0056750000000         3.169714721245213E-013
   23.1187250000000         3.206668015950226E-013
   23.2317750000000         3.244358240173024E-013
   23.3448250000000         3.282766383804106E-013
   23.4578750000000         3.321869620071062E-013
   23.5709250000000         3.361642197413605E-013
   23.6839750000000         3.402056267222519E-013
   23.7970250000000         3.443082659397537E-013
   23.9100750000000         3.484691629002092E-013
   24.0231250000000         3.526853318255978E-013
   24.1361750000000         3.569538306070899E-013
   24.2492250000000         3.612718021874717E-013
   24.3622750000000         3.656364968887645E-013
   24.4753250000000         3.700452886005093E-013
   24.5883750000000         3.744956796135234E-013
   24.7014250000000         3.789853029855581E-013
   24.8144750000000         3.835119096026222E-013
   24.9275250000000         3.880733548004864E-013
   25.0405750000000         3.926675922315354E-013
   25.1536250000000         3.972926627320292E-013
   25.2666750000000         4.019466896403037E-013
   25.3797250000000         4.066278822158826E-013
   25.4927750000000         4.113345467726681E-013
   25.6058250000000         4.160651058257738E-013
   25.7188750000000         4.208181297410816E-013
   25.8319250000000         4.255923735866834E-013
   25.9449750000000         4.303868332978598E-013
   26.0580250000000         4.352007924089552E-013
   26.1710750000000         4.400338771381545E-013
   26.2841250000000         4.448861311394844E-013
   26.3971750000000         4.497580629050953E-013
   26.5102250000000         4.546506958105084E-013
   26.6232750000000         4.595656198421659E-013
   26.7363250000000         4.645050224943882E-013
   26.8493750000000         4.694717073487984E-013
   26.9624250000000         4.744690972873917E-013
   27.0754750000000         4.795012142449649E-013
   27.1885250000000         4.845726417291086E-013
   27.3015750000000         4.896884708675278E-013
   27.4146250000000         4.948542270481695E-013
   27.5276750000000         5.000757663247305E-013
   27.6407250000000         5.053591616143203E-013
   27.7537750000000         5.107105803761765E-013
   27.8668250000000         5.161361297320827E-013
   27.9798750000000         5.216417043014557E-013
   28.0929250000000         5.272328393238024E-013
   28.2059750000000         5.329145511672305E-013
   28.3190250000000         5.386911817157121E-013
   28.4320750000000         5.445662663423707E-013
   28.5451250000000         5.505424080951561E-013
   28.6581750000000         5.566211716321772E-013
   28.7712250000000         5.628030124198512E-013
   28.8842750000000         5.690872292678186E-013
   28.9973250000000         5.754719505627202E-013
   29.1103750000000         5.819541493257738E-013
   29.2234250000000         5.885297020692805E-013
   29.3364750000000         5.951934864152686E-013
   29.4495250000000         6.019394859561125E-013
   29.5625750000000         6.087609431273324E-013
   29.6756250000000         6.156505263813388E-013
   29.7886750000000         6.226005094215174E-013
   29.9017250000000         6.296029782159699E-013
   30.0147750000000         6.366500149235296E-013
   30.1278250000000         6.437338840898666E-013
   30.2408750000000         6.508472157815881E-013
   30.3539250000000         6.579831685339899E-013
   30.4669750000000         6.651355561016600E-013
   30.5800250000000         6.722989538835656E-013
   30.6930750000000         6.794687862933303E-013
   30.8061250000000         6.866413594610739E-013
   30.9191750000000         6.938138760321191E-013
   31.0322250000000         7.009844187368990E-013
   31.1452750000000         7.081519017962498E-013
   31.2583250000000         7.153159979155986E-013
   31.3713750000000         7.224770418630313E-013
   31.4844250000000         7.296359297277148E-013
   31.5974750000000         7.367939968581458E-013
   31.7105250000000         7.439528981015051E-013
   31.8235750000000         7.511144873599827E-013
   31.9366250000000         7.582807021452670E-013
   32.0496750000000         7.654534641146920E-013
   32.1627250000000         7.726345858734038E-013
   32.2757750000000         7.798257051400757E-013
   32.3888250000000         7.870282369459225E-013
   32.5018750000000         7.942433419883573E-013
   32.6149250000000         8.014719252781283E-013
   32.7279750000000         8.087146420035764E-013
   32.8410250000000         8.159719439688459E-013
   32.9540750000000         8.232441259819661E-013
   33.0671250000000         8.305313905354615E-013
   33.1801750000000         8.378339406307526E-013
   33.2932250000000         8.451520453663048E-013
   33.4062750000000         8.524861237698155E-013
   33.5193250000000         8.598368295008950E-013
   33.6323750000000         8.672051235755131E-013
   33.7454250000000         8.745923262007561E-013
   33.8584750000000         8.820001535489385E-013
   33.9715250000000         8.894307473279738E-013
   34.0845750000000         8.968866716091253E-013
   34.1976250000000         9.043708828711100E-013
   34.3106750000000         9.118866921432905E-013
   34.4237250000000         9.194377055426267E-013
   34.5367750000000         9.270277291741830E-013
   34.6498250000000         9.346606742836521E-013
   34.7628750000000         9.423404611165124E-013
   34.8759250000000         9.500709056500119E-013
   34.9889750000000         9.578556043287072E-013
   35.1020250000000         9.656978377317671E-013
   35.2150750000000         9.736004789804762E-013
   35.3281250000000         9.815659166057977E-013
   35.4411750000000         9.895960036840761E-013
   35.5542250000000         9.976920183913466E-013
   35.6672750000000         1.005854653703368E-012
   35.7803250000000         1.014084044259454E-012
   35.8933750000000         1.022379798120201E-012
   36.0064250000000         1.030741068031930E-012
   36.1194750000000         1.039166634147638E-012
   36.2325250000000         1.047655008816082E-012
   36.3455750000000         1.056204561105277E-012
   36.4586250000000         1.064813629740673E-012
   36.5716750000000         1.073480663104679E-012
   36.6847250000000         1.082204349971236E-012
   36.7977750000000         1.090983734408545E-012
   36.9108250000000         1.099818320791680E-012
   37.0238750000000         1.108708177487443E-012
   37.1369250000000         1.117653995304637E-012
   37.2499750000000         1.126657128368558E-012
   37.3630250000000         1.135719606053795E-012
   37.4760750000000         1.144844112415386E-012
   37.5891250000000         1.154033937246515E-012
   37.7021750000000         1.163292887554626E-012
   37.8152250000000         1.172625172386690E-012
   37.9282750000000         1.182035261279589E-012
   38.0413250000000         1.191527727008933E-012
   38.1543750000000         1.201107067366520E-012
   38.2674250000000         1.210777519184434E-012
   38.3804750000000         1.220542871079749E-012
   38.4935250000000         1.230406283788620E-012
   38.6065750000000         1.240370134747742E-012
   38.7196250000000         1.250435873516158E-012
   38.8326750000000         1.260603915122716E-012
   38.9457250000000         1.270873576018483E-012
   39.0587750000000         1.281243037859295E-012
   39.1718250000000         1.291709378602809E-012
   39.2848750000000         1.302268628663578E-012
   39.3979250000000         1.312915875804338E-012
   39.5109750000000         1.323645422395087E-012
   39.6240250000000         1.334450969033022E-012
   39.7370750000000         1.345325832698725E-012
   39.8501250000000         1.356263183921646E-012
   39.9631750000000         1.367256299671935E-012
   40.0762250000000         1.378298816464688E-012
   40.1892750000000         1.389384974361439E-012
   40.3023250000000         1.400509850437759E-012
   40.4153750000000         1.411669556665426E-012
   40.5284250000000         1.422861404827210E-012
   40.6414750000000         1.434084035589680E-012
   40.7545250000000         1.445337484647712E-012
   40.8675750000000         1.456623224859332E-012
   40.9806250000000         1.467944134878529E-012
   41.0936750000000         1.479304421180818E-012
   41.2067250000000         1.490709502084302E-012
   41.3197750000000         1.502165842240719E-012
   41.4328250000000         1.513680749013382E-012
   41.5458750000000         1.525262138250302E-012
   41.6589250000000         1.536918297686318E-012
   41.7719750000000         1.548657624359978E-012
   41.8850250000000         1.560488370350479E-012
   41.9980750000000         1.572418403574297E-012
   42.1111250000000         1.584454979790715E-012
   42.2241750000000         1.596604543375960E-012
   42.3372250000000         1.608872570268426E-012
   42.4502750000000         1.621263449252551E-012
   42.5633250000000         1.633780412581888E-012
   42.6763750000000         1.646425501227294E-012
   42.7894250000000         1.659199573179886E-012
   42.9024750000000         1.672102364086433E-012
   43.0155250000000         1.685132580166875E-012
   43.1285750000000         1.698288016264223E-012
   43.2416250000000         1.711565694400512E-012
   43.3546750000000         1.724962022338169E-012
   43.4677250000000         1.738472960501739E-012
   43.5807750000000         1.752094170404616E-012
   43.6938250000000         1.765821156396972E-012
   43.8068750000000         1.779649399081987E-012
   43.9199250000000         1.793574453621496E-012
   44.0329750000000         1.807592024353455E-012
   44.1460250000000         1.821698015489106E-012
   44.2590750000000         1.835888535429084E-012
   44.3721250000000         1.850159889841827E-012
   44.4851750000000         1.864508559229998E-012
   44.5982250000000         1.878931138554248E-012
   44.7112750000000         1.893424275652117E-012
   44.8243250000000         1.907984595437989E-012
   44.9373750000000         1.922608641123169E-012
   45.0504250000000         1.937292818840696E-012
   45.1634750000000         1.952033336135481E-012
   45.2765250000000         1.966826178276952E-012
   45.3895750000000         1.981667104433324E-012
   45.5026250000000         1.996551657813865E-012
   45.6156750000000         2.011475206651680E-012
   45.7287250000000         2.026433003993677E-012
   45.8417750000000         2.041420262274969E-012
   45.9548250000000         2.056432251311322E-012
   46.0678750000000         2.071464396448158E-012
   46.1809250000000         2.086512383820607E-012
   46.2939750000000         2.101572271766612E-012
   46.4070250000000         2.116640586916346E-012
   46.5200750000000         2.131714395272755E-012
   46.6331250000000         2.146791374270028E-012
   46.7461750000000         2.161869858346634E-012
   46.8592250000000         2.176948848897023E-012
   46.9722750000000         2.192028004675207E-012
   47.0853250000000         2.207107615154146E-012
   47.1983750000000         2.222188547417441E-012
   47.3114250000000         2.237272168594431E-012
   47.4244750000000         2.252360267161115E-012
   47.5375250000000         2.267454960194365E-012
   47.6505750000000         2.282558612527084E-012
   47.7636250000000         2.297673755292176E-012
   47.8766750000000         2.312803022068052E-012
   47.9897250000000         2.327949121830298E-012
   48.1027750000000         2.343114830496425E-012
   48.2158250000000         2.358303018239966E-012
   48.3288750000000         2.373516713213861E-012
   48.4419250000000         2.388759196484576E-012
   48.5549750000000         2.404034133523480E-012
   48.6680250000000         2.419345723228629E-012
   48.7810750000000         2.434698870060072E-012
   48.8941250000000         2.450099365658540E-012
   49.0071750000000         2.465554048685198E-012
   49.1202250000000         2.481070951102298E-012
   49.2332750000000         2.496659407659484E-012
   49.3463250000000         2.512330100723764E-012
   49.4593750000000         2.528095047966469E-012
   49.5724250000000         2.543967513005590E-012
   49.6854750000000         2.559961814984644E-012
   49.7985250000000         2.576093044283284E-012
   49.9115750000000         2.592376681342437E-012
   50.0246250000000         2.608828124042845E-012
   50.1376750000000         2.625462119436062E-012
   50.2507250000000         2.642292123971838E-012
   50.3637750000000         2.659329619413611E-012
   50.4768250000000         2.676583394082666E-012
   50.5898750000000         2.694058817863727E-012
   50.7029250000000         2.711757158945153E-012
   50.8159750000000         2.729674977841239E-012
   50.9290250000000         2.747803609190511E-012
   51.0420750000000         2.766128803568036E-012
   51.1551250000000         2.784630561110624E-012
   51.2681750000000         2.803283158245794E-012
   51.3812250000000         2.822055426974401E-012
   51.4942750000000         2.840911295810647E-012
   51.6073250000000         2.859810605232590E-012
   51.7203750000000         2.878710199749117E-012
   51.8334250000000         2.897565276122885E-012
   51.9464750000000         2.916330975922012E-012
   52.0595250000000         2.934964181707470E-012
   52.1725750000000         2.953425463629603E-012
   52.2856250000000         2.971681124473261E-012
   52.3986750000000         2.989705249336495E-012
   52.5117250000000         3.007481679799454E-012
   52.6247750000000         3.025005840370338E-012
   52.7378250000000         3.042286305427491E-012
   52.8508750000000         3.059345997551878E-012
   52.9639250000000         3.076222939420116E-012
   53.0769750000000         3.092970479735482E-012
   53.1900250000000         3.109656903896312E-012
   53.3030750000000         3.126364369738478E-012
   53.4161250000000         3.143187153340294E-012
   53.5291750000000         3.160229187473036E-012
   53.6422250000000         3.177600900669975E-012
   53.7552750000000         3.195415428647310E-012
   53.8683250000000         3.213784266789708E-012
   53.9813750000000         3.232812500968513E-012
   54.0944250000000         3.252593753559074E-012
   54.2074750000000         3.273205021527878E-012
   54.3205250000000         3.294701634408765E-012
   54.4335750000000         3.317112530083957E-012
   54.5466250000000         3.340436096435668E-012
   54.6596750000000         3.364636822355083E-012
   54.7727250000000         3.389642988535966E-012
   54.8857750000000         3.415345600451240E-012
   54.9988250000000         3.441598753000876E-012
   55.1118750000000         3.468221580706469E-012
   55.2249250000000         3.495001876824530E-012
   55.3379750000000         3.521701413511227E-012
   55.4510250000000         3.548062929399571E-012
   55.5640750000000         3.573818690024845E-012
   55.6771250000000         3.598700412733809E-012
   55.7901750000000         3.622450291515177E-012
   55.9032250000000         3.644832797778056E-012
   56.0162750000000         3.665646833460974E-012
   56.1293250000000         3.684737768592143E-012
   56.2423750000000         3.702008852849474E-012
   56.3554250000000         3.717431462531864E-012
   56.4684750000000         3.731053623013526E-012
   56.5815250000000         3.743006267458829E-012
   56.6945750000000         3.753506748725538E-012
   56.8076250000000         3.762859161340751E-012
   56.9206750000000         3.771451119373316E-012
   57.0337250000000         3.779746774316968E-012
   57.1467750000000         3.788275956199885E-012
   57.2598250000000         3.797619487159063E-012
   57.3728750000000         3.808390902560679E-012
   57.4859250000000         3.821214951915382E-012
   57.5989750000000         3.836703425221194E-012
   57.7120250000000         3.855429052857005E-012
   57.8250750000000         3.877898362604886E-012
   57.9381250000000         3.904524464588741E-012
   58.0511750000000         3.935600916247366E-012
   58.1642250000000         3.971277815482039E-012
   58.2772750000000         4.011541329749197E-012
   58.3903250000000         4.056197834797544E-012
   58.5033750000000         4.104863741326160E-012
   58.6164250000000         4.156961996698898E-012
   58.7294750000000         4.211726033835440E-012
   58.8425250000000         4.268211710836860E-012
   58.9555750000000         4.325317540704735E-012
   59.0686250000000         4.381813161572336E-012
   59.1816750000000         4.436375671058203E-012
   59.2947250000000         4.487633121121966E-012
   59.4077750000000         4.534214041783836E-012
   59.5208250000000         4.574801593355670E-012
   59.6338750000000         4.608190602220128E-012
   59.7469250000000         4.633345432945671E-012
   59.8599750000000         4.649456456658361E-012
   59.9730250000000         4.655992736230160E-012
   60.0860750000000         4.652748480553103E-012
   60.1991250000000         4.639880851994635E-012
   60.3121750000000         4.617936844410484E-012
   60.4252250000000         4.587867210229491E-012
   60.5382750000000         4.551025721378395E-012
   60.6513250000000         4.509152517651530E-012
   60.7643750000000         4.464340837884455E-012
   60.8774250000000         4.418986973783366E-012
   60.9904750000000         4.375724022509169E-012
   61.1035250000000         4.337340678281561E-012
   61.2165750000000         4.306686953888584E-012
   61.3296250000000         4.286569482735754E-012
   61.4426750000000         4.279639659538748E-012
   61.5557250000000         4.288278405584445E-012
   61.6687750000000         4.314481805664982E-012
   61.7818250000000         4.359752207720286E-012
   61.8948750000000         4.424999481007450E-012
   62.0079250000000         4.510457130179003E-012
   62.1209750000000         4.615617767784173E-012
   62.2340250000000         4.739191997936770E-012
   62.3470750000000         4.879094197858629E-012
   62.4601250000000         5.032457899233787E-012
   62.5731750000000         5.195682460375873E-012
   62.6862250000000         5.364511667615362E-012
   62.7992750000000         5.534143718934433E-012
   62.9123250000000         5.699370679239252E-012
   63.0253750000000         5.854744258667689E-012
   63.1384250000000         5.994763484390478E-012
   63.2514750000000         6.114078605492938E-012
   63.3645250000000         6.207704558030522E-012
   63.4775750000000         6.271236402496647E-012
   63.5906250000000         6.301058524008905E-012
   63.7036750000000         6.294539035903598E-012
   63.8167250000000         6.250200756596692E-012
   63.9297750000000         6.167860446907188E-012
   64.0428250000000         6.048728636450666E-012
   64.1558750000000         5.895463349160276E-012
   64.2689250000000         5.712172355181906E-012
   64.3819750000000         5.504360273673241E-012
   64.4950250000000         5.278818694032456E-012
   64.6080750000000         5.043459615585356E-012
   64.7211250000000         4.807094762843660E-012
   64.8341750000000         4.579165599007275E-012
   64.9472250000000         4.369431177803945E-012
   65.0602750000000         4.187623093324497E-012
   65.1733250000000         4.043078700500178E-012
   65.2863750000000         3.944365434461126E-012
   65.3994250000000         3.898910253001466E-012
   65.5124750000000         3.912648936429555E-012