 -0.847875000000000        -5.999793464053108E-026
 -0.734825000000000         1.899931144784954E-019
 -0.621775000000000         1.336940500271167E-018
 -0.508725000000000         6.431525262395343E-018
 -0.395675000000000         2.494691346636086E-017
 -0.282625000000000         8.130121528570693E-017
 -0.169575000000000         2.268859809771796E-016
 -5.652500000000005E-002    5.502687749939762E-016
  5.652499999999994E-002    1.177345820085149E-015
  0.169575000000000         2.258012608631136E-015
  0.282625000000000         3.945432943651954E-015
  0.395675000000000         6.381038223330620E-015
  0.508725000000000         9.691903088913947E-015
  0.621775000000000         1.399587725318371E-014
  0.734825000000000         1.940716505658727E-014
  0.847875000000000         2.603834610567400E-014
  0.960925000000000         3.399360055045355E-014
   1.07397500000000         4.336476610729693E-014
   1.18702500000000         5.421745218472005E-014
   1.30007500000000         6.658216700075661E-014
   1.41312500000000         8.044594035616811E-014
   1.52617500000000         9.573807461192126E-014
   1.63922500000000         1.123185452530994E-013
   1.75227500000000         1.299848114758421E-013
   1.86532500000000         1.484493749886773E-013
   1.97837500000000         1.673425092764223E-013
   2.09142500000000         1.862150617483936E-013
   2.20447500000000         2.045374178157290E-013
   2.31752500000000         2.217076102039206E-013
   2.43057500000000         2.370664203208080E-013
   2.54362500000000         2.498962821760129E-013
   2.65667500000000         2.594554367956267E-013
   2.76972500000000         2.649917602269542E-013
   2.88277500000000         2.657583701319678E-013
   2.99582500000000         2.610624605149378E-013
   3.10887500000000         2.502554595112608E-013
   3.22192500000000         2.327871317225170E-013
   3.33497500000000         2.082066337751451E-013
   3.44802500000000         1.762351226242555E-013
   3.56107500000000         1.366783384309807E-013
   3.67412500000000         8.957187091854967E-014
   3.78717500000000         3.506543134223584E-014
   3.90022500000000        -2.644285418403744E-014
   4.01327500000000        -9.448233534655370E-014
   4.12632500000000        -1.683830263642333E-013
   4.23937500000000        -2.473354006762599E-013
   4.35242500000000        -3.304347777619250E-013
   4.46547500000000        -4.166928977040803E-013
   4.57852500000000        -5.051229374719220E-013
   4.69157500000000        -5.947051432917583E-013
   4.80462500000000        -6.844388731414622E-013
   4.91767500000000        -7.734344042495785E-013
   5.03072500000000        -8.608767212792972E-013
   5.14377500000000        -9.461060178386049E-013
   5.25682500000000        -1.028644686908750E-012
   5.36987500000000        -1.108126803850458E-012
   5.48292500000000        -1.184389773550181E-012
   5.59597500000000        -1.257433135302387E-012
   5.70902500000000        -1.327389943649179E-012
   5.82207500000000        -1.394560418130636E-012
   5.93512500000000        -1.459246601111312E-012
   6.04817500000000        -1.521846641297955E-012
   6.16122500000000        -1.582735512812518E-012
   6.27427500000000        -1.642240876435709E-012
   6.38732500000000        -1.700555195066762E-012
   6.50037500000000        -1.757727643921469E-012
   6.61342500000000        -1.813621287815860E-012
   6.72647500000000        -1.867853945319564E-012
   6.83952500000000        -1.919814798210436E-012
   6.95257500000000        -1.968613562661366E-012
   7.06562500000000        -2.013152544349871E-012
   7.17867500000000        -2.052105923055661E-012
   7.29172500000000        -2.083970720281566E-012
   7.40477500000000        -2.107126652834804E-012
   7.51782500000000        -2.119892416273994E-012
   7.63087500000000        -2.120642907064684E-012
   7.74392500000000        -2.107782027024011E-012
   7.85697500000000        -2.080011685702021E-012
   7.97002500000000        -2.036192285393703E-012
   8.08307500000000        -1.975617537522913E-012
   8.19612500000000        -1.897951957647847E-012
   8.30917500000000        -1.803290680551248E-012
   8.42222500000000        -1.692245608670570E-012
   8.53527500000000        -1.565885411945364E-012
   8.64832500000000        -1.425776881204803E-012
   8.76137500000000        -1.273898396734216E-012
   8.87442500000000        -1.112631980107994E-012
   8.98747500000000        -9.446299729727372E-013
   9.10052500000000        -7.727383794494345E-013
   9.21357500000000        -5.999040548202806E-013
   9.32662500000000        -4.290353398984610E-013
   9.43967500000000        -2.628901739753549E-013
   9.55272500000000        -1.039659873141363E-013
   9.66577500000000         4.560039766017020E-014
   9.77882500000000         1.841671111231822E-013
   9.89187500000000         3.105533661154158E-013
   10.0049250000000         4.242157996578055E-013
   10.1179750000000         5.251482595635166E-013
   10.2310250000000         6.139479934081567E-013
   10.3440750000000         6.917099364608322E-013
   10.4571250000000         7.600435616435878E-013
   10.5701750000000         8.208863416333428E-013
   10.6832250000000         8.764445952959263E-013
   10.7962750000000         9.290750748822329E-013
   10.9093250000000         9.811361171770500E-013
   11.0223750000000         1.034816975637143E-012
   11.1354250000000         1.092109928317954E-012
   11.2484750000000         1.154601935093217E-012
   11.3615250000000         1.223410529053756E-012
   11.4745750000000         1.299166308162592E-012
   11.5876250000000         1.381897387003662E-012
   11.7006750000000         1.471117631504126E-012
   11.8137250000000         1.565737960011841E-012
   11.9267750000000         1.664290981242514E-012
   12.0398250000000         1.764822532856921E-012
   12.1528750000000         1.865195137968902E-012
   12.2659250000000         1.963095695363370E-012
   12.3789750000000         2.056241488000912E-012
   12.4920250000000         2.142536253078236E-012
   12.6050750000000         2.220133322002031E-012
   12.7181250000000         2.287692921138347E-012
   12.8311750000000         2.344399092137840E-012
   12.9442250000000         2.390060062726314E-012
   13.0572750000000         2.425186428678571E-012
   13.1703250000000         2.450982012992049E-012
   13.2833750000000         2.469328140053075E-012
   13.3964250000000         2.482699498611754E-012
   13.5094750000000         2.494128266939482E-012
   13.6225250000000         2.506982084044727E-012
   13.7355750000000         2.524889901902249E-012
   13.8486250000000         2.551540277788605E-012
   13.9616750000000         2.590491600574794E-012
   14.0747250000000         2.645012307758160E-012
   14.1877750000000         2.717870344287647E-012
   14.3008250000000         2.811262328455406E-012
   14.4138750000000         2.926575865786344E-012
   14.5269250000000         3.064378389739470E-012
   14.6399750000000         3.224361367567174E-012
   14.7530250000000         3.405283372362356E-012
   14.8660750000000         3.605045684380968E-012
   14.9791250000000         3.820735439975105E-012
   15.0921750000000         4.048724671935652E-012
   15.2052250000000         4.284883516262880E-012
   15.3182750000000         4.524668010205420E-012
   15.4313250000000         4.763351001112543E-012
   15.5443750000000         4.996201626576847E-012
   15.6574250000000         5.218683416259254E-012
   15.7704750000000         5.426619822961443E-012
   15.8835250000000         5.616436254574487E-012
   15.9965750000000         5.785128617283563E-012
   16.1096250000000         5.930555977803471E-012
   16.2226750000000         6.051372273249545E-012
   16.3357250000000         6.147077267645013E-012
   16.4487750000000         6.218029249447517E-012
   16.5618250000000         6.265385033925229E-012
   16.6748750000000         6.290929040399260E-012
   16.7879250000000         6.297049412708211E-012
   16.9009750000000         6.286568181168733E-012
   17.0140250000000         6.262519824839530E-012
   17.1270750000000         6.228069104186297E-012
   17.2401250000000         6.186296359716496E-012
   17.3531750000000         6.140065576009969E-012
   17.4662250000000         6.091901081802550E-012
   17.5792750000000         6.043876618184696E-012
   17.6923250000000         5.997520453958685E-012
   17.8053750000000         5.953821752874947E-012
   17.9184250000000         5.913168712273185E-012
   18.0314750000000         5.875407140518739E-012
   18.1445250000000         5.839930093745822E-012
   18.2575750000000         5.805651582547473E-012
   18.3706250000000         5.771273336611871E-012
   18.4836750000000         5.735261233338557E-012
   18.5967250000000         5.696070844366189E-012
   18.7097750000000         5.652220595866500E-012
   18.8228250000000         5.602430178627546E-012
   18.9358750000000         5.545733910225511E-012
   19.0489250000000         5.481586609651534E-012
   19.1619750000000         5.409833764489819E-012
   19.2750250000000         5.330907768491576E-012
   19.3880750000000         5.245667330507554E-012
   19.5011250000000         5.155525069226575E-012
   19.6141750000000         5.062284391456846E-012
   19.7272250000000         4.968160283577942E-012
   19.8402750000000         4.875627601551269E-012
   19.9533250000000         4.787342916349683E-012
   20.0663750000000         4.706067477479449E-012
   20.1794250000000         4.634481966059931E-012
   20.2924750000000         4.575179958395801E-012
   20.4055250000000         4.530427587361907E-012
   20.5185750000000         4.502255024709345E-012
   20.6316250000000         4.492214348275848E-012
   20.7446750000000         4.501452468557067E-012
   20.8577250000000         4.530631115173608E-012
   20.9707750000000         4.579904267079304E-012
   21.0838250000000         4.648961565461417E-012
   21.1968750000000         4.737065916798830E-012
   21.3099250000000         4.843060132184049E-012
   21.4229750000000         4.965429764967750E-012
   21.5360250000000         5.102426900921873E-012
   21.6490750000000         5.252053944248326E-012
   21.7621250000000         5.412203491576150E-012
   21.8751750000000         5.580699049703184E-012
   21.9882250000000         5.755333195724531E-012
   22.1012750000000         5.933978724534903E-012
   22.2143250000000         6.114592329735644E-012
   22.3273750000000         6.295238740020265E-012
   22.4404250000000         6.474158249741105E-012
   22.5534750000000         6.649746704026429E-012
   22.6665250000000         6.820592099148030E-012
   22.7795750000000         6.985453464967432E-012
   22.8926250000000         7.143244790893374E-012
   23.0056750000000         7.293048499592567E-012
   23.1187250000000         7.434130981185735E-012
   23.2317750000000         7.565873277270691E-012
   23.3448250000000         7.687814655381201E-012
   23.4578750000000         7.799610643713220E-012
   23.5709250000000         7.901100691648376E-012
   23.6839750000000         7.992225796962751E-012
   23.7970250000000         8.073053986512983E-012
   23.9100750000000         8.143851221031654E-012
   24.0231250000000         8.204996327715065E-012
   24.1361750000000         8.257051682970083E-012
   24.2492250000000         8.300742549693502E-012
   24.3622750000000         8.336897123692585E-012
   24.4753250000000         8.366573369399155E-012
   24.5883750000000         8.390932264261721E-012
   24.7014250000000         8.411252289080578E-012
   24.8144750000000         8.428919187447279E-012
   24.9275250000000         8.445397337555125E-012
   25.0405750000000         8.462208363492005E-012
   25.1536250000000         8.480869478442452E-012
   25.2666750000000         8.502883731474116E-012
   25.3797250000000         8.529712334098174E-012
   25.4927750000000         8.562725032268044E-012
   25.6058250000000         8.603200851663590E-012
   25.7188750000000         8.652290466171082E-012
   25.8319250000000         8.711012456036759E-012
   25.9449750000000         8.780238891272947E-012
   26.0580250000000         8.860720850601564E-012
   26.1710750000000         8.953064653996306E-012
   26.2841250000000         9.057740205930802E-012
   26.3971750000000         9.175130081136003E-012
   26.5102250000000         9.305526165000808E-012
   26.6232750000000         9.449133826454339E-012
   26.7363250000000         9.606114890952749E-012
   26.8493750000000         9.776545936465700E-012
   26.9624250000000         9.960490978882641E-012
   27.0754750000000         1.015795075522609E-011
   27.1885250000000         1.036889042734577E-011
   27.3015750000000         1.059314041346556E-011
   27.4146250000000         1.083052295477430E-011
   27.5276750000000         1.108065905049254E-011
   27.6407250000000         1.134306201368393E-011
   27.7537750000000         1.161705278370797E-011
   27.8668250000000         1.190172800146881E-011
   27.9798750000000         1.219596206893712E-011
   28.0929250000000         1.249835410720908E-011
   28.2059750000000         1.280725345583470E-011
   28.3190250000000         1.312074425173633E-011
   28.4320750000000         1.343666028715200E-011
   28.5451250000000         1.375259795372133E-011
   28.6581750000000         1.406601746447091E-011
   28.7712250000000         1.437421861240352E-011
   28.8842750000000         1.467445915591162E-011
   28.9973250000000         1.496402808240223E-011
   29.1103750000000         1.524029027188226E-011
   29.2234250000000         1.550082408615283E-011
   29.3364750000000         1.574342408941213E-011
   29.4495250000000         1.596629719609768E-011
   29.5625750000000         1.616798037487159E-011
   29.6756250000000         1.634753243465528E-011
   29.7886750000000         1.650445901501568E-011
   29.9017250000000         1.663881621561165E-011
   30.0147750000000         1.675116810325857E-011
   30.1278250000000         1.684257259239595E-011
   30.2408750000000         1.691454798561648E-011
   30.3539250000000         1.696899281217327E-011
   30.4669750000000         1.700820153700539E-011
   30.5800250000000         1.703462862760672E-011
   30.6930750000000         1.705093621016902E-011
   30.8061250000000         1.705984722389494E-011
   30.9191750000000         1.706400395045819E-011
   31.0322250000000         1.706596656656784E-011
   31.1452750000000         1.706805722625938E-011
   31.2583250000000         1.707235689170117E-011
   31.3713750000000         1.708058160429685E-011
   31.4844250000000         1.709408713532493E-011
   31.5974750000000         1.711387995983732E-011
   31.7105250000000         1.714052316318690E-011
   31.8235750000000         1.717428939492229E-011
   31.9366250000000         1.721506447243812E-011
   32.0496750000000         1.726248715812864E-011
   32.1627250000000         1.731595841103110E-011
   32.2757750000000         1.737472974073178E-011
   32.3888250000000         1.743795142856765E-011
   32.5018750000000         1.750475908258494E-011
   32.6149250000000         1.757431890866220E-011
   32.7279750000000         1.764585540757809E-011
   32.8410250000000         1.771876424912990E-011
   32.9540750000000         1.779256433357274E-011
   33.0671250000000         1.786695242693082E-011
   33.1801750000000         1.794178121385349E-011
   33.2932250000000         1.801708324597398E-011
   33.4062750000000         1.809297202285919E-011
   33.5193250000000         1.816971725600360E-011
   33.6323750000000         1.824760054925558E-011
   33.7454250000000         1.832692583372681E-011
   33.8584750000000         1.840796193016874E-011
   33.9715250000000         1.849086009603963E-011
   34.0845750000000         1.857570363594846E-011
   34.1976250000000         1.866236944719992E-011
   34.3106750000000         1.875060070437875E-011
   34.4237250000000         1.883995571935790E-011
   34.5367750000000         1.892978910158531E-011
   34.6498250000000         1.901931700929545E-011
   34.7628750000000         1.910762610677629E-011
   34.8759250000000         1.919369380396837E-011
   34.9889750000000         1.927647890998183E-011
   35.1020250000000         1.935492547309894E-011
   35.2150750000000         1.942806056107561E-011
   35.3281250000000         1.949501214255812E-011
   35.4411750000000         1.955510959456871E-011
   35.5542250000000         1.960789998286616E-011
   35.6672750000000         1.965319089694547E-011
   35.7803250000000         1.969108649979716E-011
   35.8933750000000         1.972199817728494E-011
   36.0064250000000         1.974666413599038E-011
   36.1194750000000         1.976611541290523E-011
   36.2325250000000         1.978170073649613E-011
   36.3455750000000         1.979497722864010E-011
   36.4586250000000         1.980773515781725E-011
   36.5716750000000         1.982188162540279E-011
   36.6847250000000         1.983946779497069E-011
   36.7977750000000         1.986248764544915E-011
   36.9108250000000         1.989294159077734E-011
   37.0238750000000         1.993269744047263E-011
   37.1369250000000         1.998343235128106E-011
   37.2499750000000         2.004658885083089E-011
   37.3630250000000         2.012334709547168E-011
   37.4760750000000         2.021450052196578E-011
   37.5891250000000         2.032057067588692E-011
   37.7021750000000         2.044163541482048E-011
   37.8152250000000         2.057743417342659E-011
   37.9282750000000         2.072734776409569E-011
   38.0413250000000         2.089040713296569E-011
   38.1543750000000         2.106537029511155E-011
   38.2674250000000         2.125070738577368E-011
   38.3804750000000         2.144471581221946E-011
   38.4935250000000         2.164549609716867E-011
   38.6065750000000         2.185116613106306E-011
   38.7196250000000         2.205975833873142E-011
   38.8326750000000         2.226938656831751E-011
   38.9457250000000         2.247827829188376E-011
   39.0587750000000         2.268487651353285E-011
   39.1718250000000         2.288782171804140E-011
   39.2848750000000         2.308603740976380E-011
   39.3979250000000         2.327875655575765E-011
   39.5109750000000         2.346555235049557E-011
   39.6240250000000         2.364633782571275E-011
   39.7370750000000         2.382132865388571E-011
   39.8501250000000         2.399108667940282E-011
   39.9631750000000         2.415643584554366E-011
   40.0762250000000         2.431844175023379E-011
   40.1892750000000         2.447836341496343E-011
   40.3023250000000         2.463760137736270E-011
   40.4153750000000         2.479761620432676E-011
   40.5284250000000         2.495983735578310E-011
   40.6414750000000         2.512566124792109E-011
   40.7545250000000         2.529634138407554E-011
   40.8675750000000         2.547293915356942E-011
   40.9806250000000         2.565626170904641E-011
   41.0936750000000         2.584685047357281E-011
   41.2067250000000         2.604491736046370E-011
   41.3197750000000         2.625040126002663E-011
   41.4328250000000         2.646287145464078E-011
   41.5458750000000         2.668160498926657E-011
   41.6589250000000         2.690562256533697E-011
   41.7719750000000         2.713371067358985E-011
   41.8850250000000         2.736449009462648E-011
   41.9980750000000         2.759647314843252E-011
   42.1111250000000         2.782814465710531E-011
   42.2241750000000         2.805801573472164E-011
   42.3372250000000         2.828471692103794E-011
   42.4502750000000         2.850701144186083E-011
   42.5633250000000         2.872397978823594E-011
   42.6763750000000         2.893488689515407E-011
   42.7894250000000         2.913935509509117E-011
   42.9024750000000         2.933732035172536E-011
   43.0155250000000         2.952906233406792E-011
   43.1285750000000         2.971511502933909E-011
   43.2416250000000         2.989634902485366E-011
   43.3546750000000         3.007382334257091E-011
   43.4677250000000         3.024873070998554E-011
   43.5807750000000         3.042240637756733E-011
   43.6938250000000         3.059615224206207E-011
   43.8068750000000         3.077123672865123E-011
   43.9199250000000         3.094875424588178E-011
   44.0329750000000         3.112959828813762E-011
   44.1460250000000         3.131439510707825E-011
   44.2590750000000         3.150340487061191E-011
   44.3721250000000         3.169661584531255E-011
   44.4851750000000         3.189358704918369E-011
   44.5982250000000         3.209356934910172E-011
   44.7112750000000         3.229549844966590E-011
   44.8243250000000         3.249800865308320E-011
   44.9373750000000         3.269952760031609E-011
   45.0504250000000         3.289838611858660E-011
   45.1634750000000         3.309283438927161E-011
   45.2765250000000         3.328115828431718E-011
   45.3895750000000         3.346180378087630E-011
   45.5026250000000         3.363340298448128E-011
   45.6156750000000         3.379488194831252E-011
   45.7287250000000         3.394550766342538E-011
   45.8417750000000         3.408493737240603E-011
   45.9548250000000         3.421326500506059E-011
   46.0678750000000         3.433096100310626E-011
   46.1809250000000         3.443890963746506E-011
   46.2939750000000         3.453835157120153E-011
   46.4070250000000         3.463081219885272E-011
   46.5200750000000         3.471803484365063E-011
   46.6331250000000         3.480189505078218E-011
   46.7461750000000         3.488430517145670E-011
   46.8592250000000         3.496712756560664E-011
   46.9722750000000         3.505204491059115E-011
   47.0853250000000         3.514051549419368E-011
   47.1983750000000         3.523368479717043E-011
   47.3114250000000         3.533230897179519E-011
   47.4244750000000         3.543675324265011E-011
   47.5375250000000         3.554696123650532E-011
   47.6505750000000         3.566245343214067E-011
   47.7636250000000         3.578236373226339E-011
   47.8766750000000         3.590549737033008E-011
   47.9897250000000         3.603040859504724E-011
   48.1027750000000         3.615547985908868E-011
   48.2158250000000         3.627898262215885E-011
   48.3288750000000         3.639926583117380E-011
   48.4419250000000         3.651476786638966E-011
   48.5549750000000         3.662415821593911E-011
   48.6680250000000         3.672641731916351E-011
   48.7810750000000         3.682091543614437E-011
   48.8941250000000         3.690745481498156E-011
   49.0071750000000         3.698627630850786E-011
   49.1202250000000         3.705811751992182E-011
   49.2332750000000         3.712416616062539E-011
   49.3463250000000         3.718601416091441E-011
   49.4593750000000         3.724559894257566E-011
   49.5724250000000         3.730514910841584E-011
   49.6854750000000         3.736703293292480E-011
   49.7985250000000         3.743369867207436E-011
   49.9115750000000         3.750757460647895E-011
   50.0246250000000         3.759089449784665E-011
   50.1376750000000         3.768567653056500E-011
   50.2507250000000         3.779353765236226E-011
   50.3637750000000         3.791568339188324E-011
   50.4768250000000         3.805288237730890E-011
   50.5898750000000         3.820529439370354E-011
   50.7029250000000         3.837260197990095E-011
   50.8159750000000         3.855389459390946E-011
   50.9290250000000         3.874786187606195E-011
   51.0420750000000         3.895266886193540E-011
   51.1551250000000         3.916616545581576E-011
   51.2681750000000         3.938590644644597E-011
   51.3812250000000         3.960928859418847E-011
   51.4942750000000         3.983366966452710E-011
   51.6073250000000         4.005639191558174E-011
   51.7203750000000         4.027502941875799E-011
   51.8334250000000         4.048737514071280E-011
   51.9464750000000         4.069155409601780E-011
   52.0595250000000         4.088612694328304E-011
   52.1725750000000         4.107008472187208E-011
   52.2856250000000         4.124293330560969E-011
   52.3986750000000         4.140468806159492E-011
   52.5117250000000         4.155584630076693E-011
   52.6247750000000         4.169734007779047E-011
   52.7378250000000         4.183049964126166E-011
   52.8508750000000         4.195701503740504E-011
   52.9639250000000         4.207881089423840E-011
   53.0769750000000         4.219796811281580E-011
   53.1900250000000         4.231664069959547E-011
   53.3030750000000         4.243695757588203E-011
   53.4161250000000         4.256092145293513E-011
   53.5291750000000         4.269031452214231E-011
   53.6422250000000         4.282670140096659E-011
   53.7552750000000         4.297127170821699E-011
   53.8683250000000         4.312485848842324E-011
   53.9813750000000         4.328790493411405E-011
   54.0944250000000         4.346045330652256E-011
   54.2074750000000         4.364218547361594E-011
   54.3205250000000         4.383244570547751E-011
   54.4335750000000         4.403024035138089E-011
   54.5466250000000         4.423435582157686E-011
   54.6596750000000         4.444343914133286E-011
   54.7727250000000         4.465599869003901E-011
   54.8857750000000         4.487056199973553E-011
   54.9988250000000         4.508568550655243E-011
   55.1118750000000         4.530008876777706E-011
   55.2249250000000         4.551264862228988E-011
   55.3379750000000         4.572252560408566E-011
   55.4510250000000         4.592915270937737E-011
   55.5640750000000         4.613224195110080E-011
   55.6771250000000         4.633182850235653E-011
   55.7901750000000         4.652824396554664E-011
   55.9032250000000         4.672207963709280E-011
   56.0162750000000         4.691413122224686E-011
   56.1293250000000         4.710540013129528E-011
   56.2423750000000         4.729693123348863E-011
   56.3554250000000         4.748983555549840E-011
   56.4684750000000         4.768516767782432E-011
   56.5815250000000         4.788386237518081E-011
   56.6945750000000         4.808666569826887E-011
   56.8076250000000         4.829405046504063E-011
   56.9206750000000         4.850622334331183E-011
   57.0337250000000         4.872303158944974E-011
   57.1467750000000         4.894403645525477E-011
   57.2598250000000         4.916838258947457E-011
   57.3728750000000         4.939496359989133E-011
   57.4859250000000         4.962234620672991E-011
   57.5989750000000         4.984888797610204E-011
   57.7120250000000         5.007280517782188E-011
   57.8250750000000         5.029224747094201E-011
   57.9381250000000         5.050530930187414E-011
   58.0511750000000         5.071029562218536E-011
   58.1642250000000         5.090560466530573E-011
   58.2772750000000         5.108997938171718E-011
   58.3903250000000         5.126244856073409E-011
   58.5033750000000         5.142250055194223E-011
   58.6164250000000         5.157003011514301E-011
   58.7294750000000         5.170539074506295E-011
   58.8425250000000         5.182941854423207E-011
   58.9555750000000         5.194336600106642E-011
   59.0686250000000         5.204890201812915E-011
   59.1816750000000         5.214799285946724E-011
   59.2947250000000         5.224286974619495E-011
   59.4077750000000         5.233593892301636E-011
   59.5208250000000         5.242962903965376E-011
   59.6338750000000         5.252633923292995E-011
   59.7469250000000         5.262832877569098E-011
   59.8599750000000         5.273758232854629E-011
   59.9730250000000         5.285578433653561E-011
   60.0860750000000         5.298420220776496E-011
   60.1991250000000         5.312366455178701E-011
   60.3121750000000         5.327452545126786E-011
   60.4252250000000         5.343664495533560E-011
   60.5382750000000         5.360945919753229E-011
   60.6513250000000         5.379194085974314E-011
   60.7643750000000         5.398272312036745E-011
   60.8774250000000         5.418017191495992E-011
   60.9904750000000         5.438241976234619E-011
   61.1035250000000         5.458755208996886E-011
   61.2165750000000         5.479362750943899E-011
   61.3296250000000         5.499884278217655E-011
   61.4426750000000         5.520153866547735E-011
   61.5557250000000         5.540037201111869E-011
   61.6687750000000         5.559431269107896E-011
   61.7818250000000         5.578272459035896E-011
   61.8948750000000         5.596536956692642E-011
   62.0079250000000         5.614237316375204E-011
   62.1209750000000         5.631428414470927E-011
   62.2340250000000         5.648197659597594E-011
   62.3470750000000         5.664656975465809E-011
   62.4601250000000         5.680944238726141E-011
   62.5731750000000         5.697202716200928E-011
   62.6862250000000         5.713585601524330E-011
   62.7992750000000         5.730236138141140E-011
   62.9123250000000         5.747288972880834E-011
   63.0253750000000         5.764853285601826E-011
   63.1384250000000         5.783017717486299E-011
   63.2514750000000         5.801835564707653E-011
   63.3645250000000         5.821330684319564E-011
   63.4775750000000         5.841491511021348E-011
   63.5906250000000         5.862276993713985E-011
   63.7036750000000         5.883614758556298E-011
   63.8167250000000         5.905410523086523E-011
   63.9297750000000         5.927549337967559E-011
   64.0428250000000         5.949904827353510E-011
   64.1558750000000         5.972347566660450E-011
   64.2689250000000         5.994746489807886E-011
   64.3819750000000         6.016979125966299E-011
   64.4950250000000         6.038939804188527E-011
   64.6080750000000         6.060538110433061E-011
   64.7211250000000         6.081706139029545E-011
   64.8341750000000         6.102397369304319E-011
   64.9472250000000         6.122588513272481E-011
   65.0602750000000         6.142280718755993E-011
   65.1733250000000         6.161492224708935E-011
   65.2863750000000         6.180257135295476E-011
   65.3994250000000         6.198620786150070E-011
   65.5124750000000         6.216637388781575E-011