 -0.847875000000000        -2.158805441592125E-019
 -0.734825000000000         1.133011384637913E-017
 -0.621775000000000         8.106139529927655E-017
 -0.508725000000000         3.910028350293528E-016
 -0.395675000000000         1.518276212550180E-015
 -0.282625000000000         4.952479230471316E-015
 -0.169575000000000         1.383492840841268E-014
 -5.652500000000005E-002    3.359651104418170E-014
  5.652499999999994E-002    7.199723545675441E-014
  0.169575000000000         1.383581891466079E-013
  0.282625000000000         2.423424820123817E-013
  0.395675000000000         3.930802736862695E-013
  0.508725000000000         5.990191823202599E-013
  0.621775000000000         8.682407085611426E-013
  0.734825000000000         1.208774131135524E-012
  0.847875000000000         1.628703112577461E-012
  0.960925000000000         2.135688538263171E-012
   1.07397500000000         2.736719902426863E-012
   1.18702500000000         3.437242865226416E-012
   1.30007500000000         4.240550860814006E-012
   1.41312500000000         5.147287794075668E-012
   1.52617500000000         6.154460197784373E-012
   1.63922500000000         7.254899621973688E-012
   1.75227500000000         8.437485600916147E-012
   1.86532500000000         9.685907500117174E-012
   1.97837500000000         1.097876778744637E-011
   2.09142500000000         1.228985152162546E-011
   2.20447500000000         1.358806910699698E-011
   2.31752500000000         1.483796906371896E-011
   2.43057500000000         1.600080371675462E-011
   2.54362500000000         1.703451044133161E-011
   2.65667500000000         1.789558858619328E-011
   2.76972500000000         1.854055787918134E-011
   2.88277500000000         1.892621146008085E-011
   2.99582500000000         1.901326956449484E-011
   3.10887500000000         1.876518131721600E-011
   3.22192500000000         1.815200914958975E-011
   3.33497500000000         1.714977464132083E-011
   3.44802500000000         1.574509688339314E-011
   3.56107500000000         1.392991456862251E-011
   3.67412500000000         1.170958500314752E-011
   3.78717500000000         9.096197773885204E-012
   3.90022500000000         6.116091261632920E-012
   4.01327500000000         2.799220814013013E-012
   4.12632500000000        -8.137028593355896E-013
   4.23937500000000        -4.674686098550082E-012
   4.35242500000000        -8.731807953750023E-012
   4.46547500000000        -1.292978295521402E-011
   4.57852500000000        -1.721537612352077E-011
   4.69157500000000        -2.153532636717311E-011
   4.80462500000000        -2.583951774217950E-011
   4.91767500000000        -3.008639608388432E-011
   5.03072500000000        -3.424048149099366E-011
   5.14377500000000        -3.827712787457510E-011
   5.25682500000000        -4.218354161679761E-011
   5.36987500000000        -4.595419939398713E-011
   5.48292500000000        -4.959546732108305E-011
   5.59597500000000        -5.312292268939769E-011
   5.70902500000000        -5.655867125526627E-011
   5.82207500000000        -5.993293501149638E-011
   5.93512500000000        -6.327304972483397E-011
   6.04817500000000        -6.660897495081824E-011
   6.16122500000000        -6.996557875586240E-011
   6.27427500000000        -7.336061430409271E-011
   6.38732500000000        -7.679941071953377E-011
   6.50037500000000        -8.027427548768930E-011
   6.61342500000000        -8.376219038451058E-011
   6.72647500000000        -8.722188083311389E-011
   6.83952500000000        -9.059495385148480E-011
   6.95257500000000        -9.380392214368192E-011
   7.06562500000000        -9.675759205429503E-011
   7.17867500000000        -9.935050723946208E-011
   7.29172500000000        -1.014677387942464E-010
   7.40477500000000        -1.029895812317788E-010
   7.51782500000000        -1.037957076437481E-010
   7.63087500000000        -1.037736503904407E-010
   7.74392500000000        -1.028181408478164E-010
   7.85697500000000        -1.008482713406426E-010
   7.97002500000000        -9.779884181081015E-011
   8.08307500000000        -9.363790109996455E-011
   8.19612500000000        -8.836231400715139E-011
   8.30917500000000        -8.200101667427270E-011
   8.42222500000000        -7.461970771415109E-011
   8.53527500000000        -6.631531974046754E-011
   8.64832500000000        -5.721789919546417E-011
   8.76137500000000        -4.748304515627625E-011
   8.87442500000000        -3.729034523338768E-011
   8.98747500000000        -2.683262494644490E-011
   9.10052500000000        -1.631040885749610E-011
   9.21357500000000        -5.923717562610158E-012
   9.32662500000000         4.137153481233390E-012
   9.43967500000000         1.370031709590754E-011
   9.55272500000000         2.261891425160303E-011
   9.66577500000000         3.077786524954074E-011
   9.77882500000000         3.810200598064504E-011
   9.89187500000000         4.455325578533044E-011
   10.0049250000000         5.013975131497217E-011
   10.1179750000000         5.490888375812139E-011
   10.2310250000000         5.894844990292548E-011
   10.3440750000000         6.237820996362316E-011
   10.4571250000000         6.534807549753737E-011
   10.5701750000000         6.802446651456231E-011
   10.6832250000000         7.058344331608728E-011
   10.7962750000000         7.320138091386662E-011
   10.9093250000000         7.604354340032016E-011
   11.0223750000000         7.925187500152306E-011
   11.1354250000000         8.294233971739248E-011
   11.2484750000000         8.719155679197549E-011
   11.3615250000000         9.203263433811194E-011
   11.4745750000000         9.745584342801938E-011
   11.5876250000000         1.034023518032157E-010
   11.7006750000000         1.097720187010359E-010
   11.8137250000000         1.164215783109288E-010
   11.9267750000000         1.231807773836256E-010
   12.0398250000000         1.298497666088907E-010
   12.1528750000000         1.362219849914346E-010
   12.2659250000000         1.420875601931690E-010
   12.3789750000000         1.472505249475656E-010
   12.4920250000000         1.515406809347299E-010
   12.6050750000000         1.548206144307177E-010
   12.7181250000000         1.570034775310773E-010
   12.8311750000000         1.580549054732502E-010
   12.9442250000000         1.579993178788754E-010
   13.0572750000000         1.569239811121834E-010
   13.1703250000000         1.549767218925299E-010
   13.2833750000000         1.523623362174983E-010
   13.3964250000000         1.493338556681246E-010
   13.5094750000000         1.461861075129309E-010
   13.6225250000000         1.432379372586586E-010
   13.7355750000000         1.408223180032373E-010
   13.8486250000000         1.392693129195888E-010
   13.9616750000000         1.388897061865365E-010
   14.0747250000000         1.399606910943477E-010
   14.1877750000000         1.427097737454017E-010
   14.3008250000000         1.473071239953160E-010
   14.4138750000000         1.538496340793557E-010
   14.5269250000000         1.623596701092012E-010
   14.6399750000000         1.727813360349792E-010
   14.7530250000000         1.849802751736625E-010
   14.8660750000000         1.987494735840330E-010
   14.9791250000000         2.138170527217182E-010
   15.0921750000000         2.298562726653841E-010
   15.2052250000000         2.465044901883833E-010
   15.3182750000000         2.633741052314765E-010
   15.4313250000000         2.800724725906740E-010
   15.5443750000000         2.962188341605109E-010
   15.6574250000000         3.114615797957996E-010
   15.7704750000000         3.254927814657183E-010
   15.8835250000000         3.380667554245254E-010
   15.9965750000000         3.490002013795127E-010
   16.1096250000000         3.581914284749942E-010
   16.2226750000000         3.656152371309458E-010
   16.3357250000000         3.713249298824135E-010
   16.4487750000000         3.754489613531919E-010
   16.5618250000000         3.781831991198889E-010
   16.6748750000000         3.797748535113999E-010
   16.7879250000000         3.805144540985376E-010
   16.9009750000000         3.807181969157493E-010
   17.0140250000000         3.807072818886549E-010
   17.1270750000000         3.807960575210195E-010
   17.2401250000000         3.812716345180918E-010
   17.3531750000000         3.823804414951588E-010
   17.4662250000000         3.843149302296999E-010
   17.5792750000000         3.872046272389642E-010
   17.6923250000000         3.911075964075169E-010
   17.8053750000000         3.960104709449093E-010
   17.9184250000000         4.018265287470638E-010
   18.0314750000000         4.084026411377961E-010
   18.1445250000000         4.155284857748069E-010
   18.2575750000000         4.229426907920500E-010
   18.3706250000000         4.303548677931647E-010
   18.4836750000000         4.374538283065116E-010
   18.5967250000000         4.439288237712734E-010
   18.7097750000000         4.494836532741822E-010
   18.8228250000000         4.538532144250920E-010
   18.9358750000000         4.568187773530320E-010
   19.0489250000000         4.582204612943762E-010
   19.1619750000000         4.579619586923811E-010
   19.2750250000000         4.560253914210631E-010
   19.3880750000000         4.524644895914038E-010
   19.5011250000000         4.474119218179708E-010
   19.6141750000000         4.410681093880024E-010
   19.7272250000000         4.336986004802629E-010
   19.8402750000000         4.256195024962801E-010
   19.9533250000000         4.171860410309126E-010
   20.0663750000000         4.087799014266958E-010
   20.1794250000000         4.007884598048932E-010
   20.2924750000000         3.935957724499394E-010
   20.4055250000000         3.875579251765881E-010
   20.5185750000000         3.829998552392234E-010
   20.6316250000000         3.801919371202360E-010
   20.7446750000000         3.793474439901613E-010
   20.8577250000000         3.806120890148323E-010
   20.9707750000000         3.840582728817002E-010
   21.0838250000000         3.896856083831070E-010
   21.1968750000000         3.974233325381896E-010
   21.3099250000000         4.071323340867172E-010
   21.4229750000000         4.186126193998670E-010
   21.5360250000000         4.316163866378877E-010
   21.6490750000000         4.458543781965975E-010
   21.7621250000000         4.610119656392517E-010
   21.8751750000000         4.767609127327111E-010
   21.9882250000000         4.927710698982173E-010
   22.1012750000000         5.087265526351809E-010
   22.2143250000000         5.243345965579943E-010
   22.3273750000000         5.393353165577266E-010
   22.4404250000000         5.535126766506937E-010
   22.5534750000000         5.666984677403863E-010
   22.6665250000000         5.787783251922801E-010
   22.7795750000000         5.896916388356225E-010
   22.8926250000000         5.994305481047123E-010
   23.0056750000000         6.080383178815463E-010
   23.1187250000000         6.156055720679786E-010
   23.2317750000000         6.222604257671956E-010
   23.3448250000000         6.281636652785733E-010
   23.4578750000000         6.334967960702552E-010
   23.5709250000000         6.384579657186530E-010
   23.6839750000000         6.432458919901413E-010
   23.7970250000000         6.480530745451870E-010
   23.9100750000000         6.530598617274824E-010
   24.0231250000000         6.584215102471209E-010
   24.1361750000000         6.642657918532815E-010
   24.2492250000000         6.706860627331402E-010
   24.3622750000000         6.777344070567920E-010
   24.4753250000000         6.854279765731885E-010
   24.5883750000000         6.937417042343929E-010
   24.7014250000000         7.026124874507353E-010
   24.8144750000000         7.119428272673128E-010
   24.9275250000000         7.216061624339153E-010
   25.0405750000000         7.314535018389725E-010
   25.1536250000000         7.413191736065891E-010
   25.2666750000000         7.510304098038176E-010
   25.3797250000000         7.604163834445960E-010
   25.4927750000000         7.693156095562977E-010
   25.6058250000000         7.775862450288286E-010
   25.7188750000000         7.851129594160464E-010
   25.8319250000000         7.918146088257564E-010
   25.9449750000000         7.976495904027380E-010
   26.0580250000000         8.026217199651929E-010
   26.1710750000000         8.067811096048563E-010
   26.2841250000000         8.102246878030246E-010
   26.3971750000000         8.130968523224107E-010
   26.5102250000000         8.155854066714409E-010
   26.6232750000000         8.179150451195755E-010
   26.7363250000000         8.203425808767322E-010
   26.8493750000000         8.231446009247141E-010
   26.9624250000000         8.266119063424794E-010
   27.0754750000000         8.310355214757687E-010
   27.1885250000000         8.366973385258831E-010
   27.3015750000000         8.438538045729960E-010
   27.4146250000000         8.527331842084664E-010
   27.5276750000000         8.635158399323751E-010
   27.6407250000000         8.763324062671198E-010
   27.7537750000000         8.912536795597499E-010
   27.8668250000000         9.082848865254043E-010
   27.9798750000000         9.273653983700276E-010
   28.0929250000000         9.483661696236723E-010
   28.2059750000000         9.710945936038617E-010
   28.3190250000000         9.952986500241765E-010
   28.4320750000000         1.020675017575017E-009
   28.5451250000000         1.046877445476453E-009
   28.6581750000000         1.073533204164885E-009
   28.7712250000000         1.100250746646490E-009
   28.8842750000000         1.126637557702079E-009
   28.9973250000000         1.152314279812285E-009
   29.1103750000000         1.176926702047657E-009
   29.2234250000000         1.200162502440286E-009
   29.3364750000000         1.221758004227986E-009
   29.4495250000000         1.241514815268877E-009
   29.5625750000000         1.259298458235307E-009
   29.6756250000000         1.275050548750038E-009
   29.7886750000000         1.288783604380468E-009
   29.9017250000000         1.300584219782493E-009
   30.0147750000000         1.310605130448733E-009
   30.1278250000000         1.319058281550251E-009
   30.2408750000000         1.326204827026642E-009
   30.3539250000000         1.332341159234902E-009
   30.4669750000000         1.337790487021792E-009
   30.5800250000000         1.342879078392839E-009
   30.6930750000000         1.347930013292539E-009
   30.8061250000000         1.353245306649814E-009
   30.9191750000000         1.359090537739278E-009
   31.0322250000000         1.365688240146210E-009
   31.1452750000000         1.373205091984458E-009
   31.2583250000000         1.381748512478029E-009
   31.3713750000000         1.391359885534508E-009
   31.4844250000000         1.402016223818839E-009
   31.5974750000000         1.413634936034726E-009
   31.7105250000000         1.426073898157560E-009
   31.8235750000000         1.439147861452494E-009
   31.9366250000000         1.452631371216409E-009
   32.0496750000000         1.466276627447683E-009
   32.1627250000000         1.479823858422471E-009
   32.2757750000000         1.493016974816713E-009
   32.3888250000000         1.505615622114272E-009
   32.5018750000000         1.517409330399046E-009
   32.6149250000000         1.528227758164739E-009
   32.7279750000000         1.537948197384521E-009
   32.8410250000000         1.546506779297665E-009
   32.9540750000000         1.553896863158309E-009
   33.0671250000000         1.560173482365866E-009
   33.1801750000000         1.565448910110635E-009
   33.2932250000000         1.569890120717906E-009
   33.4062750000000         1.573706847763835E-009
   33.5193250000000         1.577148586848748E-009
   33.6323750000000         1.580486259078680E-009
   33.7454250000000         1.584003664695437E-009
   33.8584750000000         1.587983109469131E-009
   33.9715250000000         1.592690257482490E-009
   34.0845750000000         1.598366786851701E-009
   34.1976250000000         1.605213047028457E-009
   34.3106750000000         1.613384524926112E-009
   34.4237250000000         1.622981683093509E-009
   34.5367750000000         1.634044653360145E-009
   34.6498250000000         1.646554425171474E-009
   34.7628750000000         1.660432761661341E-009
   34.8759250000000         1.675544888949677E-009
   34.9889750000000         1.691708495559427E-009
   35.1020250000000         1.708699831236702E-009
   35.2150750000000         1.726266003340473E-009
   35.3281250000000         1.744135157269477E-009
   35.4411750000000         1.762031212076144E-009
   35.5542250000000         1.779684871576988E-009
   35.6672750000000         1.796846163309671E-009
   35.7803250000000         1.813296312967667E-009
   35.8933750000000         1.828856486173446E-009
   36.0064250000000         1.843397766436831E-009
   36.1194750000000         1.856843983624029E-009
   36.2325250000000         1.869178947746226E-009
   36.3455750000000         1.880441509295283E-009
   36.4586250000000         1.890728383508524E-009
   36.5716750000000         1.900185447888792E-009
   36.6847250000000         1.909006190491070E-009
   36.7977750000000         1.917414834381817E-009
   36.9108250000000         1.925663508330023E-009
   37.0238750000000         1.934016692899134E-009
   37.1369250000000         1.942738933748170E-009
   37.2499750000000         1.952083781953083E-009
   37.3630250000000         1.962282981111530E-009
   37.4760750000000         1.973531261822080E-009
   37.5891250000000         1.985984769797325E-009
   37.7021750000000         1.999745362661362E-009
   37.8152250000000         2.014860967190882E-009
   37.9282750000000         2.031321775929429E-009
   38.0413250000000         2.049058998391727E-009
   38.1543750000000         2.067949789211032E-009
   38.2674250000000         2.087818840674550E-009
   38.3804750000000         2.108448962262569E-009
   38.4935250000000         2.129585557353536E-009
   38.6065750000000         2.150956310213335E-009
   38.7196250000000         2.172272549328388E-009
   38.8326750000000         2.193248581123193E-009
   38.9457250000000         2.213611675398465E-009
   39.0587750000000         2.233116955675032E-009
   39.1718250000000         2.251554940439811E-009
   39.2848750000000         2.268762850697296E-009
   39.3979250000000         2.284632647720543E-009
   39.5109750000000         2.299117095104854E-009
   39.6240250000000         2.312231997249725E-009
   39.7370750000000         2.324054639401572E-009
   39.8501250000000         2.334725141255778E-009
   39.9631750000000         2.344438022487219E-009
   40.0762250000000         2.353435828023008E-009
   40.1892750000000         2.361999920560327E-009
   40.3023250000000         2.370439427287992E-009
   40.4153750000000         2.379077113744660E-009
   40.5284250000000         2.388235068017167E-009
   40.6414750000000         2.398224575303372E-009
   40.7545250000000         2.409330325079660E-009
   40.8675750000000         2.421799557469180E-009
   40.9806250000000         2.435829242821948E-009
   41.0936750000000         2.451560982416458E-009
   41.2067250000000         2.469071301613964E-009
   41.3197750000000         2.488373237289447E-009
   41.4328250000000         2.509409244132111E-009
   41.5458750000000         2.532057687600193E-009
   41.6589250000000         2.556138095338817E-009
   41.7719750000000         2.581417592071733E-009
   41.8850250000000         2.607621922038738E-009
   41.9980750000000         2.634446938190254E-009
   42.1111250000000         2.661572199796061E-009
   42.2241750000000         2.688674227790070E-009
   42.3372250000000         2.715441824872413E-009
   42.4502750000000         2.741586379842241E-009
   42.5633250000000         2.766862233278418E-009
   42.6763750000000         2.791066142277742E-009
   42.7894250000000         2.814054716036761E-009
   42.9024750000000         2.835746517113725E-009
   43.0155250000000         2.856127228062417E-009
   43.1285750000000         2.875245107939219E-009
   43.2416250000000         2.893215528831337E-009
   43.3546750000000         2.910208972100096E-009
   43.4677250000000         2.926443296680898E-009
   43.5807750000000         2.942177384072882E-009
   43.6938250000000         2.957693624894143E-009
   43.8068750000000         2.973288279456980E-009
   43.9199250000000         2.989253889120295E-009
   44.0329750000000         3.005867668232123E-009
   44.1460250000000         3.023377481282920E-009
   44.2590750000000         3.041986149393298E-009
   44.3721250000000         3.061849109535518E-009
   44.4851750000000         3.083057069232215E-009
   44.5982250000000         3.105636821118522E-009
   44.7112750000000         3.129547341777903E-009
   44.8243250000000         3.154677149919128E-009
   44.9373750000000         3.180850299059719E-009
   45.0504250000000         3.207833905105197E-009
   45.1634750000000         3.235342762035104E-009
   45.2765250000000         3.263052176567957E-009
   45.3895750000000         3.290611792526507E-009
   45.5026250000000         3.317656734125116E-009
   45.6156750000000         3.343823673846823E-009
   45.7287250000000         3.368764547834972E-009
   45.8417750000000         3.392161348762082E-009
   45.9548250000000         3.413740839783088E-009
   46.0678750000000         3.433282748437141E-009
   46.1809250000000         3.450633319424407E-009
   46.2939750000000         3.465712646535980E-009
   46.4070250000000         3.478519576258145E-009
   46.5200750000000         3.489135544909441E-009
   46.6331250000000         3.497725542327032E-009
   46.7461750000000         3.504535872217792E-009
   46.8592250000000         3.509890654183377E-009
   46.9722750000000         3.514182253548290E-009
   47.0853250000000         3.517865329047499E-009
   47.1983750000000         3.521443782981002E-009
   47.3114250000000         3.525456606461016E-009
   47.4244750000000         3.530465324614979E-009
   47.5375250000000         3.537036249072052E-009
   47.6505750000000         3.545723056451353E-009
   47.7636250000000         3.557048435797124E-009
   47.8766750000000         3.571486384395678E-009
   47.9897250000000         3.589444000332862E-009
   48.1027750000000         3.611242958184423E-009
   48.2158250000000         3.637100457432157E-009
   48.3288750000000         3.667118651934242E-009
   48.4419250000000         3.701265941282398E-009
   48.5549750000000         3.739368774454865E-009
   48.6680250000000         3.781103739047634E-009
   48.7810750000000         3.825994752826301E-009
   48.8941250000000         3.873413581608651E-009
   49.0071750000000         3.922584318963047E-009
   49.1202250000000         3.972599206320908E-009
   49.2332750000000         4.022434379422663E-009
   49.3463250000000         4.070973740797810E-009
   49.4593750000000         4.117040026058020E-009
   49.5724250000000         4.159432412783363E-009
   49.6854750000000         4.196964394889314E-009
   49.7985250000000         4.228512967715979E-009
   49.9115750000000         4.253068302822530E-009
   50.0246250000000         4.269780225816096E-009
   50.1376750000000         4.278014332923867E-009
   50.2507250000000         4.277394521187979E-009
   50.3637750000000         4.267851172253571E-009
   50.4768250000000         4.249660089586210E-009
   50.5898750000000         4.223462273698234E-009
   50.7029250000000         4.190288595422085E-009
   50.8159750000000         4.151555330282593E-009
   50.9290250000000         4.109059487182758E-009
   51.0420750000000         4.064939585042585E-009
   51.1551250000000         4.021635218866942E-009
   51.2681750000000         3.981817935322067E-009
   51.3812250000000         3.948311300389319E-009
   51.4942750000000         3.923993240790620E-009
   51.6073250000000         3.911680390456549E-009
   51.7203750000000         3.914014932437603E-009
   51.8334250000000         3.933330998581284E-009
   51.9464750000000         3.971527786813111E-009
   52.0595250000000         4.029946805126068E-009
   52.1725750000000         4.109253604308041E-009
   52.2856250000000         4.209341771697768E-009
   52.3986750000000         4.329253785525598E-009
   52.5117250000000         4.467129471589553E-009
   52.6247750000000         4.620186185756260E-009
   52.7378250000000         4.784737300551866E-009
   52.8508750000000         4.956250161059364E-009
   52.9639250000000         5.129441436602175E-009
   53.0769750000000         5.298416569343038E-009
   53.1900250000000         5.456848193935967E-009
   53.3030750000000         5.598190274657202E-009
   53.4161250000000         5.715922834121654E-009
   53.5291750000000         5.803818824234402E-009
   53.6422250000000         5.856232560505546E-009
   53.7552750000000         5.868380460371840E-009
   53.8683250000000         5.836625581414766E-009
   53.9813750000000         5.758737594724582E-009
   54.0944250000000         5.634121063151691E-009
   54.2074750000000         5.464001310918756E-009
   54.3205250000000         5.251551993001097E-009
   54.4335750000000         5.001952152763435E-009
   54.5466250000000         4.722375481132535E-009
   54.6596750000000         4.421892893926117E-009
   54.7727250000000         4.111285331780665E-009
   54.8857750000000         3.802778274276985E-009
   54.9988250000000         3.509685233920120E-009
   55.1118750000000         3.245981865468900E-009
   55.2249250000000         3.025806444055889E-009
   55.3379750000000         2.862917282593347E-009
   55.4510250000000         2.770107568165810E-009
   55.5640750000000         2.758609719970505E-009
   55.6771250000000         2.837510031729867E-009
   55.7901750000000         3.013194568836297E-009
   55.9032250000000         3.288853010917691E-009
   56.0162750000000         3.664065301242392E-009
   56.1293250000000         4.134499702222967E-009
   56.2423750000000         4.691728791723637E-009
   56.3554250000000         5.323203978027533E-009
   56.4684750000000         6.012380270208496E-009
   56.5815250000000         6.739012765032294E-009
   56.6945750000000         7.479623393789279E-009
   56.8076250000000         8.208131612359157E-009
   56.9206750000000         8.896645547278446E-009
   57.0337250000000         9.516382825572888E-009
   57.1467750000000         1.003871200627529E-008
   57.2598250000000         1.043626157973265E-008
   57.3728750000000         1.068408850542038E-008
   57.4859250000000         1.076083273403740E-008
   57.5989750000000         1.064983885579293E-008
   57.7120250000000         1.034018399623832E-008
   57.8250750000000         9.827567224998458E-009
   57.9381250000000         9.115012621153685E-009
   58.0511750000000         8.213363771539242E-009
   58.1642250000000         7.141493417970050E-009
   58.2772750000000         5.926248861935489E-009
   58.3903250000000         4.602068014951902E-009
   58.5033750000000         3.210294059702032E-009
   58.6164250000000         1.798160423906103E-009
   58.7294750000000         4.174822382695311E-010
   58.8425250000000        -8.769275914126385E-010
   58.9555750000000        -2.029080665231755E-009
   59.0686250000000        -2.983814826318465E-009
   59.1816750000000        -3.688922125106086E-009
   59.2947250000000        -4.097321839882303E-009
   59.4077750000000        -4.169208604274507E-009
   59.5208250000000        -3.874092599561868E-009
   59.6338750000000        -3.192639030090223E-009
   59.7469250000000        -2.118233898456968E-009
   59.8599750000000        -6.581947122649291E-010
   59.9730250000000         1.165451081886674E-009
   60.0860750000000         3.315667772016518E-009
   60.1991250000000         5.740649438838084E-009
   60.3121750000000         8.374616620505034E-009
   60.4252250000000         1.113918412123359E-008
   60.5382750000000         1.394529215271358E-008
   60.6513250000000         1.669566055708683E-008
   60.7643750000000         1.928772633504969E-008
   60.8774250000000         2.161697841534316E-008
   60.9904750000000         2.358059873942424E-008
   61.1035250000000         2.508130679875028E-008
   61.2165750000000         2.603126546658374E-008
   61.3296250000000         2.635592948604238E-008
   61.4426750000000         2.599767534902068E-008
   61.5557250000000         2.491908755617689E-008
   61.6687750000000         2.310573833024629E-008
   61.7818250000000         2.056834583016691E-008
   61.8948750000000         1.734417821500903E-008
   62.0079250000000         1.349761027885229E-008
   62.1209750000000         9.119760175855782E-009
   62.2340250000000         4.327145767972011E-009
   62.3470750000000        -7.406474265571652E-010
   62.4601250000000        -5.924264983245510E-009
   62.5731750000000        -1.104881661847481E-008
   62.6862250000000        -1.592892583218594E-008
   62.7992750000000        -2.037450483259314E-008
   62.9123250000000        -2.419707355785361E-008
   63.0253750000000        -2.721645910825736E-008
   63.1384250000000        -2.926764768843201E-008
   63.2514750000000        -3.020758352719799E-008
   63.3645250000000        -2.992165292159545E-008
   63.4775750000000        -2.832963064263420E-008
   63.5906250000000        -2.539083237132677E-008
   63.7036750000000        -2.110825936602317E-008
   63.8167250000000        -1.553151515659693E-008
   63.9297750000000        -8.758328530445771E-009
   64.0428250000000        -9.345287023041040E-010
   64.1558750000000         7.747617982196029E-009
   64.2689250000000         1.705275849514818E-008
   64.3819750000000         2.670749590568562E-008
   64.4950250000000         3.640705598633686E-008
   64.6080750000000         4.582345700518310E-008
   64.7211250000000         5.461501467664383E-008
   64.8341750000000         6.243694365447767E-008
   64.9472250000000         6.895277922865813E-008
   65.0602750000000         7.384629029245138E-008
   65.1733250000000         7.683351731838482E-008
   65.2863750000000         7.767455390828668E-008
   65.3994250000000         7.618466066296090E-008
   65.5124750000000         7.224430584496997E-008