 -0.847875000000000         4.321603846593605E-017
 -0.734825000000000         3.588356301818650E-012
 -0.621775000000000         2.605057778399053E-011
 -0.508725000000000         1.286309846985508E-010
 -0.395675000000000         5.111618705990103E-010
 -0.282625000000000         1.710262588401042E-009
 -0.169575000000000         4.923256489105843E-009
 -5.652500000000005E-002    1.240029361686459E-008
  5.652499999999994E-002    2.777504489147282E-008
  0.169575000000000         5.624744943732837E-008
  0.282625000000000         1.046470738113125E-007
  0.395675000000000         1.814957487838946E-007
  0.508725000000000         2.971097302044003E-007
  0.621775000000000         4.636506546534819E-007
  0.734825000000000         6.949933682922583E-007
  0.847875000000000         1.006405657803762E-006
  0.960925000000000         1.413967193077862E-006
   1.07397500000000         1.933944408983786E-006
   1.18702500000000         2.582003855563094E-006
   1.30007500000000         3.372452400659408E-006
   1.41312500000000         4.317413060724371E-006
   1.52617500000000         5.426072523881404E-006
   1.63922500000000         6.703928260514063E-006
   1.75227500000000         8.152112070876739E-006
   1.86532500000000         9.766846655174645E-006
   1.97837500000000         1.153905648428325E-005
   2.09142500000000         1.345398485868777E-005
   2.20447500000000         1.549229660322210E-005
   2.31752500000000         1.762632784930622E-005
   2.43057500000000         1.982493258315713E-005
   2.54362500000000         2.205568212956039E-005
   2.65667500000000         2.427519478164080E-005
   2.76972500000000         2.644389718354395E-005
   2.88277500000000         2.851560234734782E-005
   2.99582500000000         3.044916552437916E-005
   3.10887500000000         3.219692282848558E-005
   3.22192500000000         3.372326956678591E-005
   3.33497500000000         3.498436726136999E-005
   3.44802500000000         3.595609784278840E-005
   3.56107500000000         3.660304764612143E-005
   3.67412500000000         3.691769726434829E-005
   3.78717500000000         3.687643939026241E-005
   3.90022500000000         3.649142838216477E-005
   4.01327500000000         3.575267283407993E-005
   4.12632500000000         3.468809559575673E-005
   4.23937500000000         3.331430762646447E-005
   4.35242500000000         3.166091751473710E-005
   4.46547500000000         2.976249665722758E-005
   4.57852500000000         2.765890390307349E-005
   4.69157500000000         2.539140986657204E-005
   4.80462500000000         2.300360540127735E-005
   4.91767500000000         2.053685296782902E-005
   5.03072500000000         1.803314283422129E-005
   5.14377500000000         1.552805022786025E-005
   5.25682500000000         1.305330978749875E-005
   5.36987500000000         1.063479828036939E-005
   5.48292500000000         8.292023681318653E-006
   5.59597500000000         6.037308941754609E-006
   5.70902500000000         3.876024795063091E-006
   5.82207500000000         1.809187490187350E-006
   5.93512500000000        -1.686413888319422E-007
   6.04817500000000        -2.065553350348760E-006
   6.16122500000000        -3.892394207863709E-006
   6.27427500000000        -5.660004779298181E-006
   6.38732500000000        -7.378027666220986E-006
   6.50037500000000        -9.052355198653514E-006
   6.61342500000000        -1.068420396859198E-005
   6.72647500000000        -1.226836435882124E-005
   6.83952500000000        -1.379224128187631E-005
   6.95257500000000        -1.523490199749624E-005
   7.06562500000000        -1.656774734102394E-005
   7.17867500000000        -1.775347992376074E-005
   7.29172500000000        -1.874964942427603E-005
   7.40477500000000        -1.950658033279038E-005
   7.51782500000000        -1.997239189664687E-005
   7.63087500000000        -2.009490950418790E-005
   7.74392500000000        -1.982184867010790E-005
   7.85697500000000        -1.910458992630966E-005
   7.97002500000000        -1.790430239059403E-005
   8.08307500000000        -1.618965272971535E-005
   8.19612500000000        -1.394376637188586E-005
   8.30917500000000        -1.116357407843692E-005
   8.42222500000000        -7.860879930581034E-006
   8.53527500000000        -4.063449956571814E-006
   8.64832500000000         1.874093425464172E-007
   8.76137500000000         4.830960978533381E-006
   8.87442500000000         9.795096953139307E-006
   8.98747500000000         1.499362226976864E-005
   9.10052500000000         2.033338906583709E-005
   9.21357500000000         2.571483077446051E-005
   9.32662500000000         3.103647520304867E-005
   9.43967500000000         3.619743093241980E-005
   9.55272500000000         4.110449779741771E-005
   9.66577500000000         4.567213156024415E-005
   9.77882500000000         4.982806368585693E-005
   9.89187500000000         5.351560391370255E-005
   10.0049250000000         5.669603270651761E-005
   10.1179750000000         5.934727498149284E-005
   10.2310250000000         6.146670318624751E-005
   10.3440750000000         6.307150677052553E-005
   10.4571250000000         6.419588115161313E-005
   10.5701750000000         6.488832487338543E-005
   10.6832250000000         6.520940488874469E-005
   10.7962750000000         6.522857217477939E-005
   10.9093250000000         6.502014021230344E-005
   11.0223750000000         6.465924818807546E-005
   11.1354250000000         6.421502203117478E-005
   11.2484750000000         6.375985942056124E-005
   11.3615250000000         6.334367542458548E-005
   11.4745750000000         6.301484462566436E-005
   11.5876250000000         6.279666762755476E-005
   11.7006750000000         6.271189368817875E-005
   11.8137250000000         6.275191620738108E-005
   11.9267750000000         6.291101448595824E-005
   12.0398250000000         6.315539089773802E-005
   12.1528750000000         6.345791383683525E-005
   12.2659250000000         6.376957699362869E-005
   12.3789750000000         6.405413658699483E-005
   12.4920250000000         6.426615661572005E-005
   12.6050750000000         6.436802425367413E-005
   12.7181250000000         6.433317175965902E-005
   12.8311750000000         6.414707935238192E-005
   12.9442250000000         6.380860483825195E-005
   13.0572750000000         6.333344707818257E-005
   13.1703250000000         6.275479572814076E-005
   13.2833750000000         6.212261898520069E-005
   13.3964250000000         6.150212223162897E-005
   13.5094750000000         6.097145288468782E-005
   13.6225250000000         6.061743724931988E-005
   13.7355750000000         6.053326050510026E-005
   13.8486250000000         6.081139509017906E-005
   13.9616750000000         6.154215658393180E-005
   14.0747250000000         6.280536738618565E-005
   14.1877750000000         6.466948084561894E-005
   14.3008250000000         6.718325264881513E-005
   14.4138750000000         7.037405148647323E-005
   14.5269250000000         7.424361971706913E-005
   14.6399750000000         7.876941139053193E-005
   14.7530250000000         8.390590283348047E-005
   14.8660750000000         8.957956191869543E-005
   14.9791250000000         9.569078530359644E-005
   15.0921750000000         1.021398663686687E-004
   15.2052250000000         1.087747989116147E-004
   15.3182750000000         1.154775829608453E-004
   15.4313250000000         1.220799682906856E-004
   15.5443750000000         1.284613640943772E-004
   15.6574250000000         1.344607015043951E-004
   15.7704750000000         1.399775170112878E-004
   15.8835250000000         1.448843321649982E-004
   15.9965750000000         1.491104602791061E-004
   16.1096250000000         1.525892375595658E-004
   16.2226750000000         1.552874452453438E-004
   16.3357250000000         1.572014587764806E-004
   16.4487750000000         1.583534279197747E-004
   16.5618250000000         1.587899250201411E-004
   16.6748750000000         1.585818659959104E-004
   16.7879250000000         1.578202184587511E-004
   16.9009750000000         1.566086845099569E-004
   17.0140250000000         1.550576701529139E-004
   17.1270750000000         1.532815850649545E-004
   17.2401250000000         1.513929763579468E-004
   17.3531750000000         1.494947062693014E-004
   17.4662250000000         1.476833483421894E-004
   17.5792750000000         1.460255815132635E-004
   17.6923250000000         1.445899880334291E-004
   17.8053750000000         1.433980962179967E-004
   17.9184250000000         1.424785398740378E-004
   18.0314750000000         1.418029952324494E-004
   18.1445250000000         1.413662332923315E-004
   18.2575750000000         1.410969154850206E-004
   18.3706250000000         1.409578510962018E-004
   18.4836750000000         1.408563666339061E-004
   18.5967250000000         1.407378499845118E-004
   18.7097750000000         1.405031803833163E-004
   18.8228250000000         1.401019705888771E-004
   18.9358750000000         1.394469953099855E-004
   19.0489250000000         1.385101881908804E-004
   19.1619750000000         1.372309296444970E-004
   19.2750250000000         1.356148874959422E-004
   19.3880750000000         1.336396111551900E-004
   19.5011250000000         1.313505478099963E-004
   19.6141750000000         1.287650869074159E-004
   19.7272250000000         1.259665791779329E-004
   19.8402750000000         1.230066398712409E-004
   19.9533250000000         1.199962815514220E-004
   20.0663750000000         1.170100876957357E-004
   20.1794250000000         1.141719818849885E-004
   20.2924750000000         1.115638245215763E-004
   20.4055250000000         1.093053480531811E-004
   20.5185750000000         1.074733128626573E-004
   20.6316250000000         1.061610021135263E-004
   20.7446750000000         1.054325649169787E-004
   20.8577250000000         1.053406034062824E-004
   20.9707750000000         1.059215152576711E-004
   21.0838250000000         1.071909734838468E-004
   21.1968750000000         1.091468891988864E-004
   21.3099250000000         1.117695681289210E-004
   21.4229750000000         1.150215787991838E-004
   21.5360250000000         1.188505525398225E-004
   21.6490750000000         1.231916664581147E-004
   21.7621250000000         1.279698371639871E-004
   21.8751750000000         1.331050160501179E-004
   21.9882250000000         1.385112655933527E-004
   22.1012750000000         1.441015222362439E-004
   22.2143250000000         1.497905571864855E-004
   22.3273750000000         1.554968810998758E-004
   22.4404250000000         1.611446513640846E-004
   22.5534750000000         1.666658567207655E-004
   22.6665250000000         1.720008734616886E-004
   22.7795750000000         1.771002052106976E-004
   22.8926250000000         1.819239216350246E-004
   23.0056750000000         1.864425233314918E-004
   23.1187250000000         1.906357966407955E-004
   23.2317750000000         1.944927350144525E-004
   23.3448250000000         1.980106655018747E-004
   23.4578750000000         2.011940672338707E-004
   23.5709250000000         2.040534381063870E-004
   23.6839750000000         2.066045138654642E-004
   23.7970250000000         2.088668005562706E-004
   23.9100750000000         2.108627055239405E-004
   24.0231250000000         2.126164484748755E-004
   24.1361750000000         2.141530986907954E-004
   24.2492250000000         2.154977593835901E-004
   24.3622750000000         2.166754714662699E-004
   24.4753250000000         2.177100372831120E-004
   24.5883750000000         2.186241734647081E-004
   24.7014250000000         2.194396499940279E-004
   24.8144750000000         2.201769089212328E-004
   24.9275250000000         2.208552129445976E-004
   25.0405750000000         2.214927255685876E-004
   25.1536250000000         2.221068019500254E-004
   25.2666750000000         2.227140898733315E-004
   25.3797250000000         2.233311523540200E-004
   25.4927750000000         2.239749256715571E-004
   25.6058250000000         2.246637804469487E-004
   25.7188750000000         2.254158056961388E-004
   25.8319250000000         2.262510936344333E-004
   25.9449750000000         2.271913550999948E-004
   26.0580250000000         2.282601868447168E-004
   26.1710750000000         2.294830445291785E-004
   26.2841250000000         2.308872944200592E-004
   26.3971750000000         2.325024988093393E-004
   26.5102250000000         2.343600871048682E-004
   26.6232750000000         2.364925046757405E-004
   26.7363250000000         2.389324133867197E-004
   26.8493750000000         2.417094453534794E-004
   26.9624250000000         2.448675394035083E-004
   27.0754750000000         2.484207759600449E-004
   27.1885250000000         2.524124460677287E-004
   27.3015750000000         2.568442250687865E-004
   27.4146250000000         2.617490305839639E-004
   27.5276750000000         2.671258186022050E-004
   27.6407250000000         2.729771862388835E-004
   27.7537750000000         2.792920284399939E-004
   27.8668250000000         2.860498119102310E-004
   27.9798750000000         2.932187258152958E-004
   28.0929250000000         3.007560453549182E-004
   28.2059750000000         3.086082806793004E-004
   28.3190250000000         3.167114062589230E-004
   28.4320750000000         3.249923592554383E-004
   28.5451250000000         3.333701809103611E-004
   28.6581750000000         3.417575895603553E-004
   28.7712250000000         3.500634511820471E-004
   28.8842750000000         3.581950527036272E-004
   28.9973250000000         3.660605351384819E-004
   29.1103750000000         3.735730015365365E-004
   29.2234250000000         3.806442623165250E-004
   29.3364750000000         3.872115739079673E-004
   29.4495250000000         3.931988724192952E-004
   29.5625750000000         3.985610053230378E-004
   29.6756250000000         4.032608650210049E-004
   29.7886750000000         4.072782124088630E-004
   29.9017250000000         4.106024589946087E-004
   30.0147750000000         4.132431820734161E-004
   30.1278250000000         4.152237485486210E-004
   30.2408750000000         4.165790458609539E-004
   30.3539250000000         4.173589960879220E-004
   30.4669750000000         4.176216301025036E-004
   30.5800250000000         4.174307040363467E-004
   30.6930750000000         4.168550218826440E-004
   30.8061250000000         4.159659005195072E-004
   30.9191750000000         4.148329339320748E-004
   31.0322250000000         4.135241272518213E-004
   31.1452750000000         4.121015817038254E-004
   31.2583250000000         4.106211030720451E-004
   31.3713750000000         4.091294871176225E-004
   31.4844250000000         4.076650732629990E-004
   31.5974750000000         4.062565073509390E-004
   31.7105250000000         4.049234417575307E-004
   31.8235750000000         4.036764590112490E-004
   31.9366250000000         4.025191856600251E-004
   32.0496750000000         4.014485029243268E-004
   32.1627250000000         4.004577436970763E-004
   32.2757750000000         3.995372268146265E-004
   32.3888250000000         3.986767353766346E-004
   32.5018750000000         3.978675900404660E-004
   32.6149250000000         3.971038196013636E-004
   32.7279750000000         3.963841547309776E-004
   32.8410250000000         3.957127010840978E-004
   32.9540750000000         3.950992004694549E-004
   33.0671250000000         3.945608181120538E-004
   33.1801750000000         3.941191969137055E-004
   33.2932250000000         3.938022011174558E-004
   33.4062750000000         3.936427576382064E-004
   33.5193250000000         3.936754638711730E-004
   33.6323750000000         3.939357030436531E-004
   33.7454250000000         3.944592694176944E-004
   33.8584750000000         3.952781149525951E-004
   33.9715250000000         3.964195787135018E-004
   34.0845750000000         3.979046060996619E-004
   34.1976250000000         3.997457726187601E-004
   34.3106750000000         4.019461849721132E-004
   34.4237250000000         4.044988698918074E-004
   34.5367750000000         4.073869032564103E-004
   34.6498250000000         4.105823405229469E-004
   34.7628750000000         4.140476012094866E-004
   34.8759250000000         4.177367574143440E-004
   34.9889750000000         4.215966102828805E-004
   35.1020250000000         4.255689025925531E-004
   35.2150750000000         4.295922836200617E-004
   35.3281250000000         4.336049236045409E-004
   35.4411750000000         4.375469297199133E-004
   35.5542250000000         4.413626014050279E-004
   35.6672750000000         4.450030424311654E-004
   35.7803250000000         4.484307470814132E-004
   35.8933750000000         4.516093071930180E-004
   36.0064250000000         4.545273656333706E-004
   36.1194750000000         4.571733309219283E-004
   36.2325250000000         4.595624747209632E-004
   36.3455750000000         4.617061037033147E-004
   36.4586250000000         4.636465928479654E-004
   36.5716750000000         4.654151319897572E-004
   36.6847250000000         4.670763505727713E-004
   36.7977750000000         4.686742381246313E-004
   36.9108250000000         4.702864363139978E-004
   37.0238750000000         4.719615895647146E-004
   37.1369250000000         4.737730684122586E-004
   37.2499750000000         4.757779550421026E-004
   37.3630250000000         4.780279622786832E-004
   37.4760750000000         4.805662431386399E-004
   37.5891250000000         4.834256497851335E-004
   37.7021750000000         4.866262599639331E-004
   37.8152250000000         4.901748796114825E-004
   37.9282750000000         4.940642479639766E-004
   38.0413250000000         4.982733239316654E-004
   38.1543750000000         5.027681982548684E-004
   38.2674250000000         5.075030116516851E-004
   38.3804750000000         5.124220597021502E-004
   38.4935250000000         5.174613397157489E-004
   38.6065750000000         5.225546392534294E-004
   38.7196250000000         5.276284306735326E-004
   38.8326750000000         5.326156805828166E-004
   38.9457250000000         5.374517245854870E-004
   39.0587750000000         5.420747237863902E-004
   39.1718250000000         5.464388297616017E-004
   39.2848750000000         5.505067910117718E-004
   39.3979250000000         5.542557630838650E-004
   39.5109750000000         5.576780960603815E-004
   39.6240250000000         5.607819390517362E-004
   39.7370750000000         5.635912502185086E-004
   39.8501250000000         5.661450278270618E-004
   39.9631750000000         5.684959883434270E-004
   40.0762250000000         5.707084996112219E-004
   40.1892750000000         5.728561959699100E-004
   40.3023250000000         5.750188032810821E-004
   40.4153750000000         5.772788267115645E-004
   40.5284250000000         5.797186303453995E-004
   40.6414750000000         5.824162512447295E-004
   40.7545250000000         5.854407226520804E-004
   40.8675750000000         5.888583776642368E-004
   40.9806250000000         5.927116932061331E-004
   41.0936750000000         5.970413169755874E-004
   41.2067250000000         6.018520116942108E-004
   41.3197750000000         6.071577394917042E-004
   41.4328250000000         6.129320395291723E-004
   41.5458750000000         6.191454281023512E-004
   41.6589250000000         6.257495121844811E-004
   41.7719750000000         6.326839092683166E-004
   41.8850250000000         6.398783569613905E-004
   41.9980750000000         6.472561592198901E-004
   42.1111250000000         6.547377148552255E-004
   42.2241750000000         6.622410825024302E-004
   42.3372250000000         6.696931543278453E-004
   42.4502750000000         6.770202261263295E-004
   42.5633250000000         6.841660732823995E-004
   42.6763750000000         6.910806994327699E-004
   42.7894250000000         6.977301258922978E-004
   42.9024750000000         7.040942016749110E-004
   43.0155250000000         7.101669979726065E-004
   43.1285750000000         7.159576956610312E-004
   43.2416250000000         7.214830510296652E-004
   43.3546750000000         7.267745038640303E-004
   43.4677250000000         7.318701628842776E-004
   43.5807750000000         7.368122653459943E-004
   43.6938250000000         7.416447545305811E-004
   43.8068750000000         7.464090203517120E-004
   43.9199250000000         7.511414052240173E-004
   44.0329750000000         7.558700342711781E-004
   44.1460250000000         7.606124032370376E-004
   44.2590750000000         7.653737751037654E-004
   44.3721250000000         7.701458486655450E-004
   44.4851750000000         7.749068313435201E-004
   44.5982250000000         7.796213251389426E-004
   44.7112750000000         7.842418484625902E-004
   44.8243250000000         7.887123367580775E-004
   44.9373750000000         7.929697210525660E-004
   45.0504250000000         7.969470203390759E-004
   45.1634750000000         8.005776745181828E-004
   45.2765250000000         8.037988922285909E-004
   45.3895750000000         8.065553678940253E-004
   45.5026250000000         8.088032189403289E-004
   45.6156750000000         8.105126442272422E-004
   45.7287250000000         8.116705102464262E-004
   45.8417750000000         8.122820949692383E-004
   45.9548250000000         8.123719723869274E-004
   46.0678750000000         8.119836265787087E-004
   46.1809250000000         8.111788926201496E-004
   46.2939750000000         8.100354301998983E-004
   46.4070250000000         8.086445246602157E-004
   46.5200750000000         8.071074745634319E-004
   46.6331250000000         8.055315436349437E-004
   46.7461750000000         8.040254228422287E-004
   46.8592250000000         8.026954090160578E-004
   46.9722750000000         8.016403421380065E-004
   47.0853250000000         8.009482214119437E-004
   47.1983750000000         8.006921227238582E-004
   47.3114250000000         8.009276816234837E-004
   47.4244750000000         8.016909875746945E-004
   47.5375250000000         8.029973809301259E-004
   47.6505750000000         8.048426504240377E-004
   47.7636250000000         8.072000061365808E-004
   47.8766750000000         8.100265098410503E-004
   47.9897250000000         8.132629770053468E-004
   48.1027750000000         8.168386005310983E-004
   48.2158250000000         8.206744635508508E-004
   48.3288750000000         8.246871599040673E-004
   48.4419250000000         8.287938586211308E-004
   48.5549750000000         8.329162869939945E-004
   48.6680250000000         8.369842542784434E-004
   48.7810750000000         8.409397523514101E-004
   48.8941250000000         8.447415640909343E-004
   49.0071750000000         8.483536802389459E-004
   49.1202250000000         8.517751426920867E-004
   49.2332750000000         8.550046619647522E-004
   49.3463250000000         8.580700482902799E-004
   49.4593750000000         8.610081370623976E-004
   49.5724250000000         8.638693973358563E-004
   49.6854750000000         8.667129551685037E-004
   49.7985250000000         8.696041026113603E-004
   49.9115750000000         8.726086979987559E-004
   50.0246250000000         8.757909413971224E-004
   50.1376750000000         8.792088359795202E-004
   50.2507250000000         8.829106257216957E-004
   50.3637750000000         8.869294302111041E-004
   50.4768250000000         8.912947967711875E-004
   50.5898750000000         8.959996710227401E-004
   50.7029250000000         9.010391202097110E-004
   50.8159750000000         9.063830231735232E-004
   50.9290250000000         9.119868143880652E-004
   51.0420750000000         9.177921488627102E-004
   51.1551250000000         9.237299919066282E-004
   51.2681750000000         9.297233317674022E-004
   51.3812250000000         9.356916541829073E-004
   51.4942750000000         9.415534750863249E-004
   51.6073250000000         9.472311495301612E-004
   51.7203750000000         9.526539625072699E-004
   51.8334250000000         9.577623343793975E-004
   51.9464750000000         9.625088164376804E-004
   52.0595250000000         9.668629163377470E-004
   52.1725750000000         9.708111682348630E-004
   52.2856250000000         9.743573282846903E-004
   52.3986750000000         9.775224108007281E-004
   52.5117250000000         9.803455483070440E-004
   52.6247750000000         9.828785352132808E-004
   52.7378250000000         9.851846430949081E-004
   52.8508750000000         9.873391453641706E-004
   52.9639250000000         9.894226059388369E-004
   53.0769750000000         9.915179926346016E-004
   53.1900250000000         9.937071200678044E-004
   53.3030750000000         9.960672236596164E-004
   53.4161250000000         9.986679909339739E-004
   53.5291750000000         1.001566829735713E-003
   53.6422250000000         1.004812729196101E-003
   53.7552750000000         1.008437691507643E-003
   53.8683250000000         1.012457473132518E-003
   53.9813750000000         1.016874802715876E-003
   54.0944250000000         1.021676457451796E-003
   54.2074750000000         1.026834941367857E-003
   54.3205250000000         1.032312973511517E-003
   54.4335750000000         1.038061451512377E-003
   54.5466250000000         1.044026541982020E-003
   54.6596750000000         1.050150532125851E-003
   54.7727250000000         1.056375616008507E-003
   54.8857750000000         1.062645004474517E-003
   54.9988250000000         1.068908420186497E-003
   55.1118750000000         1.075121815954969E-003
   55.2249250000000         1.081250901598308E-003
   55.3379750000000         1.087271147692200E-003
   55.4510250000000         1.093170520884731E-003
   55.5640750000000         1.098947350569841E-003
   55.6771250000000         1.104611706959887E-003
   55.7901750000000         1.110182646896601E-003
   55.9032250000000         1.115688138274101E-003
   56.0162750000000         1.121161757515388E-003
   56.1293250000000         1.126641027843218E-003
   56.2423750000000         1.132164921301128E-003
   56.3554250000000         1.137770551529259E-003
   56.4684750000000         1.143491039924154E-003
   56.5815250000000         1.149352942148818E-003
   56.6945750000000         1.155374350489811E-003
   56.8076250000000         1.161563273314821E-003
   56.9206750000000         1.167916223669892E-003
   57.0337250000000         1.174418194495177E-003
   57.1467750000000         1.181042174356930E-003
   57.2598250000000         1.187748732872129E-003
   57.3728750000000         1.194493972926811E-003
   57.4859250000000         1.201220776916062E-003
   57.5989750000000         1.207868231853397E-003
   57.7120250000000         1.214371445937665E-003
   57.8250750000000         1.220665654816947E-003
   57.9381250000000         1.226685153579639E-003
   58.0511750000000         1.232384802344260E-003
   58.1642250000000         1.237693650474684E-003
   58.2772750000000         1.242592774210874E-003
   58.3903250000000         1.247035533047752E-003
   58.5033750000000         1.251020207934679E-003
   58.6164250000000         1.254533380722190E-003
   58.7294750000000         1.257596753383084E-003
   58.8425250000000         1.260228016781551E-003
   58.9555750000000         1.262471488255021E-003
   59.0686250000000         1.264373447245943E-003
   59.1816750000000         1.265988898504215E-003
   59.2947250000000         1.267388896442109E-003
   59.4077750000000         1.268640521019826E-003
   59.5208250000000         1.269812761595425E-003
   59.6338750000000         1.270975869584628E-003
   59.7469250000000         1.272195824788818E-003
   59.8599750000000         1.273532419360254E-003
   59.9730250000000         1.275037718912010E-003
   60.0860750000000         1.276754265960475E-003
   60.1991250000000         1.278713821826955E-003
   60.3121750000000         1.280937534786953E-003
   60.4252250000000         1.283432829747179E-003
   60.5382750000000         1.286205796510859E-003
   60.6513250000000         1.289243663056566E-003
   60.7643750000000         1.292527282430244E-003
   60.8774250000000         1.296033382909609E-003
   60.9904750000000         1.299734232894999E-003
   61.1035250000000         1.303599304417268E-003
   61.2165750000000         1.307597688009435E-003
   61.3296250000000         1.311700660393582E-003
   61.4426750000000         1.315880458187800E-003
   61.5557250000000         1.320115804981327E-003
   61.6687750000000         1.324390652976438E-003
   61.7818250000000         1.328696477695225E-003
   61.8948750000000         1.333030010258207E-003
   62.0079250000000         1.337393963302992E-003
   62.1209750000000         1.341796061732867E-003
   62.2340250000000         1.346255594644936E-003
   62.3470750000000         1.350770701050739E-003
   62.4601250000000         1.355381365291523E-003
   62.5731750000000         1.360086060934565E-003
   62.6862250000000         1.364923055378234E-003
   62.7992750000000         1.369889154604829E-003
   62.9123250000000         1.375013298710492E-003
   63.0253750000000         1.380288978081102E-003
   63.1384250000000         1.385732291153461E-003
   63.2514750000000         1.391328661744081E-003
   63.3645250000000         1.397080876589365E-003
   63.4775750000000         1.402966040743050E-003
   63.5906250000000         1.408970726244456E-003
   63.7036750000000         1.415072606542457E-003
   63.8167250000000         1.421245847127843E-003
   63.9297750000000         1.427462476720405E-003
   64.0428250000000         1.433693613866875E-003
   64.1558750000000         1.439910515907322E-003
   64.2689250000000         1.446085218098354E-003
   64.3819750000000         1.452191378130895E-003
   64.4950250000000         1.458205205376401E-003
   64.6080750000000         1.464105370034837E-003
   64.7211250000000         1.469873730287706E-003
   64.8341750000000         1.475494817208631E-003
   64.9472250000000         1.480956253114751E-003
   65.0602750000000         1.486247781853975E-003
   65.1733250000000         1.491361494142433E-003
   65.2863750000000         1.496291097518166E-003
   65.3994250000000         1.501032031193929E-003
   65.5124750000000         1.505580516376168E-003