 -0.847875000000000        -1.253802632918246E-024
 -0.734825000000000        -2.662657779611887E-023
 -0.621775000000000        -2.301519258630532E-022
 -0.508725000000000        -1.337998226546360E-021
 -0.395675000000000        -6.120177238067675E-021
 -0.282625000000000        -2.345816288569521E-020
 -0.169575000000000        -7.769982779161773E-020
 -5.652500000000005E-002   -2.268294965001725E-019
  5.652499999999994E-002   -5.928188199137459E-019
  0.169575000000000        -1.405981893716236E-018
  0.282625000000000        -3.063146458734728E-018
  0.395675000000000        -6.197396999919360E-018
  0.508725000000000        -1.175429201804607E-017
  0.621775000000000        -2.106924391052474E-017
  0.734825000000000        -3.593831700016779E-017
  0.847875000000000        -5.867680416598329E-017
  0.960925000000000        -9.215809756001341E-017
   1.07397500000000        -1.398327168367414E-016
   1.18702500000000        -2.057246872029256E-016
   1.30007500000000        -2.944051492702305E-016
   1.41312500000000        -4.109442830429451E-016
   1.52617500000000        -5.608386112936864E-016
   1.63922500000000        -7.499249211324763E-016
   1.75227500000000        -9.842771541776017E-016
   1.86532500000000        -1.270082156018137E-015
   1.97837500000000        -1.613507213712334E-015
   2.09142500000000        -2.020560250211793E-015
   2.20447500000000        -2.496939211869318E-015
   2.31752500000000        -3.047885746500211E-015
   2.43057500000000        -3.678031305883322E-015
   2.54362500000000        -4.391259424516549E-015
   2.65667500000000        -5.190569358486603E-015
   2.76972500000000        -6.077960019242121E-015
   2.88277500000000        -7.054328981534302E-015
   2.99582500000000        -8.119408944509568E-015
   3.10887500000000        -9.271721586204480E-015
   3.22192500000000        -1.050855831577957E-014
   3.33497500000000        -1.182601263435966E-014
   3.44802500000000        -1.321903344166485E-014
   3.56107500000000        -1.468154654143298E-014
   3.67412500000000        -1.620657224164528E-014
   3.78717500000000        -1.778638077168703E-014
   3.90022500000000        -1.941270928622792E-014
   4.01327500000000        -2.107695674993375E-014
   4.12632500000000        -2.277041244849104E-014
   4.23937500000000        -2.448449757064357E-014
   4.35242500000000        -2.621096491342174E-014
   4.46547500000000        -2.794214389682805E-014
   4.57852500000000        -2.967111966824416E-014
   4.69157500000000        -3.139187313146661E-014
   4.80462500000000        -3.309943832870066E-014
   4.91767500000000        -3.478998066623888E-014
   5.03072500000000        -3.646085288988958E-014
   5.14377500000000        -3.811061116075058E-014
   5.25682500000000        -3.973897635932446E-014
   5.36987500000000        -4.134676478356298E-014
   5.48292500000000        -4.293579537885324E-014
   5.59597500000000        -4.450877160942940E-014
   5.70902500000000        -4.606913277608103E-014
   5.82207500000000        -4.762090625497129E-014
   5.93512500000000        -4.916852230572016E-014
   6.04817500000000        -5.071666053914018E-014
   6.16122500000000        -5.227010389406418E-014
   6.27427500000000        -5.383356993317674E-014
   6.38732500000000        -5.541159073298536E-014
   6.50037500000000        -5.700839665385326E-014
   6.61342500000000        -5.862783014427739E-014
   6.72647500000000        -6.027328459291617E-014
   6.83952500000000        -6.194766908989309E-014
   6.95257500000000        -6.365337562630711E-014
   7.06562500000000        -6.539231354273872E-014
   7.17867500000000        -6.716595298301178E-014
   7.29172500000000        -6.897535696556497E-014
   7.40477500000000        -7.082128322037619E-014
   7.51782500000000        -7.270424587215636E-014
   7.63087500000000        -7.462462459714856E-014
   7.74392500000000        -7.658273877335373E-014
   7.85697500000000        -7.857893358908335E-014
   7.97002500000000        -8.061366123914967E-014
   8.08307500000000        -8.268752538947447E-014
   8.19612500000000        -8.480133644244139E-014
   8.30917500000000        -8.695607695095726E-014
   8.42222500000000        -8.915290579008376E-014
   8.53527500000000        -9.139311501552398E-014
   8.64832500000000        -9.367804152013840E-014
   8.76137500000000        -9.600897552032416E-014
   8.87442500000000        -9.838704880128804E-014
   8.98747500000000        -1.008131045322459E-013
   9.10052500000000        -1.032875555929108E-013
   9.21357500000000        -1.058102590397267E-013
   9.32662500000000        -1.083803882364393E-013
   9.43967500000000        -1.109963504194263E-013
   9.55272500000000        -1.136557051068001E-013
   9.66577500000000        -1.163551041505024E-013
   9.77882500000000        -1.190902908349313E-013
   9.89187500000000        -1.218561164770061E-013
   10.0049250000000        -1.246465915268031E-013
   10.1179750000000        -1.274549894529076E-013
   10.2310250000000        -1.302739793807232E-013
   10.3440750000000        -1.330957773288869E-013
   10.4571250000000        -1.359123082509604E-013
   10.5701750000000        -1.387153928461752E-013
   10.6832250000000        -1.414969721772497E-013
   10.7962750000000        -1.442492826221395E-013
   10.9093250000000        -1.469650486570477E-013
   11.0223750000000        -1.496376783977186E-013
   11.1354250000000        -1.522614104331103E-013
   11.2484750000000        -1.548314785278434E-013
   11.3615250000000        -1.573442176594107E-013
   11.4745750000000        -1.597971576761012E-013
   11.5876250000000        -1.621890887133046E-013
   11.7006750000000        -1.645200817458900E-013
   11.8137250000000        -1.667914911916577E-013
   11.9267750000000        -1.690059279358094E-013
   12.0398250000000        -1.711671966918067E-013
   12.1528750000000        -1.732802062929836E-013
   12.2659250000000        -1.753508624343780E-013
   12.3789750000000        -1.773859328893486E-013
   12.4920250000000        -1.793928882178123E-013
   12.6050750000000        -1.813797442546714E-013
   12.7181250000000        -1.833548920588990E-013
   12.8311750000000        -1.853269259803128E-013
   12.9442250000000        -1.873044803885469E-013
   13.0572750000000        -1.892960532463085E-013
   13.1703250000000        -1.913098523327765E-013
   13.2833750000000        -1.933536649749394E-013
   13.3964250000000        -1.954347567768208E-013
   13.5094750000000        -1.975597475124459E-013
   13.6225250000000        -1.997345504556201E-013
   13.7355750000000        -2.019643380002705E-013
   13.8486250000000        -2.042534746232566E-013
   13.9616750000000        -2.066055174529340E-013
   14.0747250000000        -2.090232115290158E-013
   14.1877750000000        -2.115084995229119E-013
   14.3008250000000        -2.140625495650560E-013
   14.4138750000000        -2.166857606379660E-013
   14.5269250000000        -2.193778037335692E-013
   14.6399750000000        -2.221376360480736E-013
   14.7530250000000        -2.249635353041302E-013
   14.8660750000000        -2.278531401892356E-013
   14.9791250000000        -2.308034640987794E-013
   15.0921750000000        -2.338109277886932E-013
   15.2052250000000        -2.368713983720570E-013
   15.3182750000000        -2.399802323866594E-013
   15.4313250000000        -2.431323224210330E-013
   15.5443750000000        -2.463221625150209E-013
   15.6574250000000        -2.495439065873810E-013
   15.7704750000000        -2.527914639411433E-013
   15.8835250000000        -2.560585990589491E-013
   15.9965750000000        -2.593390310786286E-013
   16.1096250000000        -2.626265415514148E-013
   16.2226750000000        -2.659150846114618E-013
   16.3357250000000        -2.691989305827147E-013
   16.4487750000000        -2.724727697075934E-013
   16.5618250000000        -2.757318159203131E-013
   16.6748750000000        -2.789719249026899E-013
   16.7879250000000        -2.821896817775518E-013
   16.9009750000000        -2.853824950411672E-013
   17.0140250000000        -2.885486388534833E-013
   17.1270750000000        -2.916872955973644E-013
   17.2401250000000        -2.947985869537716E-013
   17.3531750000000        -2.978835827599983E-013
   17.4662250000000        -3.009442732198914E-013
   17.5792750000000        -3.039835173948745E-013
   17.6923250000000        -3.070050124591466E-013
   17.8053750000000        -3.100131847460561E-013
   17.9184250000000        -3.130130919662480E-013
   18.0314750000000        -3.160103264890579E-013
   18.1445250000000        -3.190108525103286E-013
   18.2575750000000        -3.220208574344596E-013
   18.3706250000000        -3.250466186883225E-013
   18.4836750000000        -3.280943106586465E-013
   18.5967250000000        -3.311698461349436E-013
   18.7097750000000        -3.342787145152621E-013
   18.8228250000000        -3.374258214942896E-013
   18.9358750000000        -3.406153547588696E-013
   19.0489250000000        -3.438506508815834E-013
   19.1619750000000        -3.471341126413433E-013
   19.2750250000000        -3.504671468505669E-013
   19.3880750000000        -3.538501158145492E-013
   19.5011250000000        -3.572823494131591E-013
   19.6141750000000        -3.607621843996632E-013
   19.7272250000000        -3.642870408835406E-013
   19.8402750000000        -3.678535030223443E-013
   19.9533250000000        -3.714574752867435E-013
   20.0663750000000        -3.750943474007756E-013
   20.1794250000000        -3.787591525874968E-013
   20.2924750000000        -3.824467656759617E-013
   20.4055250000000        -3.861520978158479E-013
   20.5185750000000        -3.898702943788908E-013
   20.6316250000000        -3.935969053151657E-013
   20.7446750000000        -3.973280868300624E-013
   20.8577250000000        -4.010607399456253E-013
   20.9707750000000        -4.047926534075344E-013
   21.0838250000000        -4.085226131891615E-013
   21.1968750000000        -4.122504669142456E-013
   21.3099250000000        -4.159772047200175E-013
   21.4229750000000        -4.197049699428203E-013
   21.5360250000000        -4.234370242716606E-013
   21.6490750000000        -4.271777194412832E-013
   21.7621250000000        -4.309324272875118E-013
   21.8751750000000        -4.347074085356703E-013
   21.9882250000000        -4.385096805451434E-013
   22.1012750000000        -4.423468592634587E-013
   22.2143250000000        -4.462269594458792E-013
   22.3273750000000        -4.501581888705453E-013
   22.4404250000000        -4.541487247116428E-013
   22.5534750000000        -4.582064848492578E-013
   22.6665250000000        -4.623388961198906E-013
   22.7795750000000        -4.665526705080214E-013
   22.8926250000000        -4.708535933770744E-013
   23.0056750000000        -4.752463436159700E-013
   23.1187250000000        -4.797343342843557E-013
   23.2317750000000        -4.843195939990701E-013
   23.3448250000000        -4.890027015918310E-013
   23.4578750000000        -4.937827378200978E-013
   23.5709250000000        -4.986573030471668E-013
   23.6839750000000        -5.036225862974564E-013
   23.7970250000000        -5.086734852614026E-013
   23.9100750000000        -5.138037570432018E-013
   24.0231250000000        -5.190062028870962E-013
   24.1361750000000        -5.242728911829150E-013
   24.2492250000000        -5.295954003318941E-013
   24.3622750000000        -5.349650953768519E-013
   24.4753250000000        -5.403733905859666E-013
   24.5883750000000        -5.458120012090715E-013
   24.7014250000000        -5.512732141647663E-013
   24.8144750000000        -5.567501153861845E-013
   24.9275250000000        -5.622367900673296E-013
   25.0405750000000        -5.677285117364886E-013
   25.1536250000000        -5.732218779404187E-013
   25.2666750000000        -5.787149077830211E-013
   25.3797250000000        -5.842070956812177E-013
   25.4927750000000        -5.896994254786618E-013
   25.6058250000000        -5.951943320901392E-013
   25.7188750000000        -6.006956200766628E-013
   25.8319250000000        -6.062083368410288E-013
   25.9449750000000        -6.117386326363926E-013
   26.0580250000000        -6.172935495668730E-013
   26.1710750000000        -6.228807985836802E-013
   26.2841250000000        -6.285085533618685E-013
   26.3971750000000        -6.341851829644884E-013
   26.5102250000000        -6.399190004593862E-013
   26.6232750000000        -6.457180281654348E-013
   26.7363250000000        -6.515897663800527E-013
   26.8493750000000        -6.575410002229744E-013
   26.9624250000000        -6.635776423532169E-013
   27.0754750000000        -6.697045824853193E-013
   27.1885250000000        -6.759256069256427E-013
   27.3015750000000        -6.822433625843674E-013
   27.4146250000000        -6.886593654422334E-013
   27.5276750000000        -6.951740454897090E-013
   27.6407250000000        -7.017868325565381E-013
   27.7537750000000        -7.084962857992134E-013
   27.8668250000000        -7.153002172643963E-013
   27.9798750000000        -7.221958588346934E-013
   28.0929250000000        -7.291800374517921E-013
   28.2059750000000        -7.362493359352537E-013
   28.3190250000000        -7.434002402719171E-013
   28.4320750000000        -7.506292647521831E-013
   28.5451250000000        -7.579330655927354E-013
   28.6581750000000        -7.653085077942594E-013
   28.7712250000000        -7.727526942219414E-013
   28.8842750000000        -7.802629725306121E-013
   28.9973250000000        -7.878369119336271E-013
   29.1103750000000        -7.954722301199546E-013
   29.2234250000000        -8.031667026589848E-013
   29.3364750000000        -8.109180773919733E-013
   29.4495250000000        -8.187239237706005E-013
   29.5625750000000        -8.265815230767104E-013
   29.6756250000000        -8.344877442930665E-013
   29.7886750000000        -8.424389269630081E-013
   29.9017250000000        -8.504308092829707E-013
   30.0147750000000        -8.584584245647301E-013
   30.1278250000000        -8.665160787588535E-013
   30.2408750000000        -8.745973369858130E-013
   30.3539250000000        -8.826950479629483E-013
   30.4669750000000        -8.908014080515894E-013
   30.5800250000000        -8.989080666415500E-013
   30.6930750000000        -9.070062745747815E-013
   30.8061250000000        -9.150870310804908E-013
   30.9191750000000        -9.231413069805640E-013
   31.0322250000000        -9.311602561258494E-013
   31.1452750000000        -9.391354521991317E-013
   31.2583250000000        -9.470591273409200E-013
   31.3713750000000        -9.549243964829826E-013
   31.4844250000000        -9.627254979074109E-013
   31.5974750000000        -9.704579757981208E-013
   31.7105250000000        -9.781188525441368E-013
   31.8235750000000        -9.857067466353003E-013
   31.9366250000000        -9.932219463060608E-013
   32.0496750000000        -1.000666437330085E-012
   32.1627250000000        -1.008043865306456E-012
   32.2757750000000        -1.015359451331893E-012
   32.3888250000000        -1.022619846229343E-012
   32.5018750000000        -1.029832955454300E-012
   32.6149250000000        -1.037007719325894E-012
   32.7279750000000        -1.044153826318010E-012
   32.8410250000000        -1.051281455432695E-012
   32.9540750000000        -1.058401000478453E-012
   33.0671250000000        -1.065522770962666E-012
   33.1801750000000        -1.072656731159080E-012
   33.2932250000000        -1.079812250176818E-012
   33.4062750000000        -1.086997887353958E-012
   33.5193250000000        -1.094221204637775E-012
   33.6323750000000        -1.101488644860380E-012
   33.7454250000000        -1.108805443351006E-012
   33.8584750000000        -1.116175575026996E-012
   33.9715250000000        -1.123601771815561E-012
   34.0845750000000        -1.131085565131436E-012
   34.1976250000000        -1.138627351048770E-012
   34.3106750000000        -1.146226518100293E-012
   34.4237250000000        -1.153881595632622E-012
   34.5367750000000        -1.161590391628187E-012
   34.6498250000000        -1.169350162976656E-012
   34.7628750000000        -1.177157798776275E-012
   34.8759250000000        -1.185009986548581E-012
   34.9889750000000        -1.192903366138137E-012
   35.1020250000000        -1.200834686431173E-012
   35.2150750000000        -1.208800931251569E-012
   35.3281250000000        -1.216799429646929E-012
   35.4411750000000        -1.224827948906961E-012
   35.5542250000000        -1.232884740330223E-012
   35.6672750000000        -1.240968573660061E-012
   35.7803250000000        -1.249078763223974E-012
   35.8933750000000        -1.257215142266989E-012
   36.0064250000000        -1.265378035697713E-012
   36.1194750000000        -1.273568208685360E-012
   36.2325250000000        -1.281786804717941E-012
   36.3455750000000        -1.290035291403609E-012
   36.4586250000000        -1.298315376847837E-012
   36.5716750000000        -1.306628950715050E-012
   36.6847250000000        -1.314978034840139E-012
   36.7977750000000        -1.323364721469225E-012
   36.9108250000000        -1.331791143237442E-012
   37.0238750000000        -1.340259481700286E-012
   37.1369250000000        -1.348771931677909E-012
   37.2499750000000        -1.357330730662456E-012
   37.3630250000000        -1.365938182268615E-012
   37.4760750000000        -1.374596684910195E-012
   37.5891250000000        -1.383308776207042E-012
   37.7021750000000        -1.392077167380065E-012
   37.8152250000000        -1.400904774302074E-012
   37.9282750000000        -1.409794726534397E-012
   38.0413250000000        -1.418750401092602E-012
   38.1543750000000        -1.427775405121967E-012
   38.2674250000000        -1.436873542141796E-012
   38.3804750000000        -1.446048773859063E-012
   38.4935250000000        -1.455305159753018E-012
   38.6065750000000        -1.464646778872969E-012
   38.7196250000000        -1.474077627899797E-012
   38.8326750000000        -1.483601520564238E-012
   38.9457250000000        -1.493221974594022E-012
   39.0587750000000        -1.502942096674483E-012
   39.1718250000000        -1.512764493803320E-012
   39.2848750000000        -1.522691149042834E-012
   39.3979250000000        -1.532723346962506E-012
   39.5109750000000        -1.542861605200944E-012
   39.6240250000000        -1.553105597742821E-012
   39.7370750000000        -1.563454145670923E-012
   39.8501250000000        -1.573905202441109E-012
   39.9631750000000        -1.584455867929425E-012
   40.0762250000000        -1.595102445667049E-012
   40.1892750000000        -1.605840508253556E-012
   40.3023250000000        -1.616664985214681E-012
   40.4153750000000        -1.627570279102279E-012
   40.5284250000000        -1.638550429115160E-012
   40.6414750000000        -1.649599273410883E-012
   40.7545250000000        -1.660710606356905E-012
   40.8675750000000        -1.671878397078864E-012
   40.9806250000000        -1.683096986823299E-012
   41.0936750000000        -1.694361289628363E-012
   41.2067250000000        -1.705666993603634E-012
   41.3197750000000        -1.717010759228016E-012
   41.4328250000000        -1.728390386196332E-012
   41.5458750000000        -1.739804955105404E-012
   41.6589250000000        -1.751254963674436E-012
   41.7719750000000        -1.762742396946939E-012
   41.8850250000000        -1.774270768471821E-012
   41.9980750000000        -1.785845118973662E-012
   42.1111250000000        -1.797471948544724E-012
   42.2241750000000        -1.809159101590760E-012
   42.3372250000000        -1.820915608470843E-012
   42.4502750000000        -1.832751476483629E-012
   42.5633250000000        -1.844677437347172E-012
   42.6763750000000        -1.856704629289954E-012
   42.7894250000000        -1.868844253683527E-012
   42.9024750000000        -1.881107222010740E-012
   43.0155250000000        -1.893503770596402E-012
   43.1285750000000        -1.906043072839937E-012
   43.2416250000000        -1.918732835786748E-012
   43.3546750000000        -1.931578925158164E-012
   43.4677250000000        -1.944585054305393E-012
   43.5807750000000        -1.957752457936352E-012
   43.6938250000000        -1.971079635617887E-012
   43.8068750000000        -1.984562199165561E-012
   43.9199250000000        -1.998192766088950E-012
   44.0329750000000        -2.011960942073086E-012
   44.1460250000000        -2.025853414812038E-012
   44.2590750000000        -2.039854137451712E-012
   44.3721250000000        -2.053944615295968E-012
   44.4851750000000        -2.068104314071134E-012
   44.5982250000000        -2.082311152855101E-012
   44.7112750000000        -2.096542065586233E-012
   44.8243250000000        -2.110773637917200E-012
   44.9373750000000        -2.124982841060899E-012
   45.0504250000000        -2.139147756312797E-012
   45.1634750000000        -2.153248288091535E-012
   45.2765250000000        -2.167266888766242E-012
   45.3895750000000        -2.181189222174855E-012
   45.5026250000000        -2.195004730068326E-012
   45.6156750000000        -2.208707087791343E-012
   45.7287250000000        -2.222294535390077E-012
   45.8417750000000        -2.235770031245415E-012
   45.9548250000000        -2.249141223937023E-012
   46.0678750000000        -2.262420232513540E-012
   46.1809250000000        -2.275623230352108E-012
   46.2939750000000        -2.288769840684303E-012
   46.4070250000000        -2.301882346907477E-012
   46.5200750000000        -2.314984724129254E-012
   46.6331250000000        -2.328101562515188E-012
   46.7461750000000        -2.341256895196599E-012
   46.8592250000000        -2.354472941817672E-012
   46.9722750000000        -2.367768880332862E-012
   47.0853250000000        -2.381159675641673E-012
   47.1983750000000        -2.394654994478482E-012
   47.3114250000000        -2.408258302312720E-012
   47.4244750000000        -2.421966162199188E-012
   47.5375250000000        -2.435767811584331E-012
   47.6505750000000        -2.449645053905908E-012
   47.7636250000000        -2.463572473236456E-012
   47.8766750000000        -2.477518028451403E-012
   47.9897250000000        -2.491444011973983E-012
   48.1027750000000        -2.505308362704538E-012
   48.2158250000000        -2.519066324337056E-012
   48.3288750000000        -2.532672395658581E-012
   48.4419250000000        -2.546082495713809E-012
   48.5549750000000        -2.559256316267142E-012
   48.6680250000000        -2.572159739114449E-012
   48.7810750000000        -2.584767226996162E-012
   48.8941250000000        -2.597064082456798E-012
   49.0071750000000        -2.609048445939226E-012
   49.1202250000000        -2.620732950101119E-012
   49.2332750000000        -2.632145897815380E-012
   49.3463250000000        -2.643331855793975E-012
   49.4593750000000        -2.654351623641255E-012
   49.5724250000000        -2.665281494863840E-012
   49.6854750000000        -2.676211742172742E-012
   49.7985250000000        -2.687244348332815E-012
   49.9115750000000        -2.698489985752741E-012
   50.0246250000000        -2.710064337535414E-012
   50.1376750000000        -2.722083794554082E-012
   50.2507250000000        -2.734660678312821E-012
   50.3637750000000        -2.747898181654401E-012
   50.4768250000000        -2.761885144766421E-012
   50.5898750000000        -2.776690890431527E-012
   50.7029250000000        -2.792360383749537E-012
   50.8159750000000        -2.808909925931608E-012
   50.9290250000000        -2.826323565048813E-012
   51.0420750000000        -2.844550517403962E-012
   51.1551250000000        -2.863503799028212E-012
   51.2681750000000        -2.883060172287593E-012
   51.3812250000000        -2.903061595610123E-012
   51.4942750000000        -2.923318273635753E-012
   51.6073250000000        -2.943613297534851E-012
   51.7203750000000        -2.963708859828731E-012
   51.8334250000000        -2.983353916091986E-012
   51.9464750000000        -3.002293143299304E-012
   52.0595250000000        -3.020276957095566E-012
   52.1725750000000        -3.037072268925490E-012
   52.2856250000000        -3.052473599688437E-012
   52.3986750000000        -3.066314113730466E-012
   52.5117250000000        -3.078476155371226E-012
   52.6247750000000        -3.088900805096378E-012
   52.7378250000000        -3.097595950994867E-012
   52.8508750000000        -3.104642384404096E-012
   52.9639250000000        -3.110197530195436E-012
   53.0769750000000        -3.114496414511607E-012
   53.1900250000000        -3.117849573100115E-012
   53.3030750000000        -3.120637688200955E-012
   53.4161250000000        -3.123302866540499E-012
   53.5291750000000        -3.126336641501924E-012
   53.6422250000000        -3.130264812744105E-012
   53.7552750000000        -3.135629510117575E-012
   53.8683250000000        -3.142968918838208E-012
   53.9813750000000        -3.152795278523336E-012
   54.0944250000000        -3.165571929200399E-012
   54.2074750000000        -3.181690201393295E-012
   54.3205250000000        -3.201447076436805E-012
   54.4335750000000        -3.225024622792214E-012
   54.5466250000000        -3.252472195377148E-012
   54.6596750000000        -3.283692341559542E-012
   54.7727250000000        -3.318431361272910E-012
   54.8857750000000        -3.356275275815587E-012
   54.9988250000000        -3.396651884048723E-012
   55.1118750000000        -3.438839357217722E-012
   55.2249250000000        -3.481981611309946E-012
   55.3379750000000        -3.525110418708175E-012
   55.4510250000000        -3.567173981203343E-012
   55.5640750000000        -3.607071422938643E-012
   55.6771250000000        -3.643692272955546E-012
   55.7901750000000        -3.675959806353919E-012
   55.9032250000000        -3.702876861064638E-012
   56.0162750000000        -3.723572501497356E-012
   56.1293250000000        -3.737347721781800E-012
   56.2423750000000        -3.743718279515537E-012
   56.3554250000000        -3.742452724428708E-012
   56.4684750000000        -3.733603651639951E-012
   56.5815250000000        -3.717530348658865E-012
   56.6945750000000        -3.694911247236646E-012
   56.8076250000000        -3.666744793818185E-012
   56.9206750000000        -3.634337693984956E-012
   57.0337250000000        -3.599279983086339E-012
   57.1467750000000        -3.563406783824717E-012
   57.2598250000000        -3.528747146712963E-012
   57.3728750000000        -3.497460961196182E-012
   57.4859250000000        -3.471765433525451E-012
   57.5989750000000        -3.453853148473973E-012
   57.7120250000000        -3.445804297811708E-012
   57.8250750000000        -3.449496085399186E-012
   57.9381250000000        -3.466512585736933E-012
   58.0511750000000        -3.498058686454851E-012
   58.1642250000000        -3.544881828533209E-012
   58.2772750000000        -3.607205231914995E-012
   58.3903250000000        -3.684676133114352E-012
   58.5033750000000        -3.776332286307380E-012
   58.6164250000000        -3.880589462087732E-012
   58.7294750000000        -3.995252092569870E-012
   58.8425250000000        -4.117548443309672E-012
   58.9555750000000        -4.244190871426669E-012
   59.0686250000000        -4.371460773576205E-012
   59.1816750000000        -4.495316810853337E-012
   59.2947250000000        -4.611524037314458E-012
   59.4077750000000        -4.715800444185340E-012
   59.5208250000000        -4.803976646765706E-012
   59.6338750000000        -4.872163532627740E-012
   59.7469250000000        -4.916921959359118E-012
   59.8599750000000        -4.935428141346648E-012
   59.9730250000000        -4.925628031504039E-012
   60.0860750000000        -4.886373971661271E-012
   60.1991250000000        -4.817537049301182E-012
   60.3121750000000        -4.720089046711891E-012
   60.4252250000000        -4.596148697194646E-012
   60.5382750000000        -4.448987863365932E-012
   60.6513250000000        -4.282994489546180E-012
   60.7643750000000        -4.103590693665498E-012
   60.8774250000000        -3.917105867207865E-012
   60.9904750000000        -3.730606455293579E-012
   61.1035250000000        -3.551685843244901E-012
   61.2165750000000        -3.388219431758831E-012
   61.3296250000000        -3.248091795693488E-012
   61.4426750000000        -3.138904307632139E-012
   61.5557250000000        -3.067672848630638E-012
   61.6687750000000        -3.040526341784084E-012
   61.7818250000000        -3.062417482080133E-012
   61.8948750000000        -3.136857330642988E-012
   62.0079250000000        -3.265685312090846E-012
   62.1209750000000        -3.448885568411136E-012
   62.2340250000000        -3.684459612833311E-012
   62.3470750000000        -3.968363713020690E-012
   62.4601250000000        -4.294517597298828E-012
   62.5731750000000        -4.654888737955461E-012
   62.6862250000000        -5.039653976282646E-012
   62.7992750000000        -5.437437497823105E-012
   62.9123250000000        -5.835621176876569E-012
   63.0253750000000        -6.220720379263603E-012
   63.1384250000000        -6.578815511942276E-012
   63.2514750000000        -6.896026907236303E-012
   63.3645250000000        -7.159018233124671E-012
   63.4775750000000        -7.355511737083481E-012
   63.5906250000000        -7.474797131108774E-012
   63.7036750000000        -7.508215124370454E-012
   63.8167250000000        -7.449596405493255E-012
   63.9297750000000        -7.295637398223622E-012
   64.0428250000000        -7.046195352579662E-012
   64.1558750000000        -6.704487277730921E-012
   64.2689250000000        -6.277179865352259E-012
   64.3819750000000        -5.774360875865788E-012
   64.4950250000000        -5.209386183142839E-012
   64.6080750000000        -4.598600932040554E-012
   64.7211250000000        -3.960937802378248E-012
   64.8341750000000        -3.317399959846920E-012
   64.9472250000000        -2.690440977272084E-012
   65.0602750000000        -2.103258385563758E-012
   65.1733250000000        -1.579021546135346E-012
   65.2863750000000        -1.140058095335743E-012
   65.3994250000000        -8.070259710138965E-013
   65.5124750000000        -5.980999451897188E-013