 -0.847875000000000        -5.000904843061882E-018
 -0.734825000000000        -4.999709302196225E-018
 -0.621775000000000        -4.901953569447969E-018
 -0.508725000000000        -4.101227076955901E-018
 -0.395675000000000         2.020340755998239E-019
 -0.282625000000000         1.854612488496063E-017
 -0.169575000000000         8.430882918062397E-017
 -5.652500000000005E-002    2.880090290503954E-016
  5.652499999999994E-002    8.433230781830162E-016
  0.169575000000000         2.197099906020787E-015
  0.282625000000000         5.192439489700737E-015
  0.395675000000000         1.129080546435314E-014
  0.508725000000000         2.285775268846994E-014
  0.621775000000000         4.351429065913008E-014
  0.734825000000000         7.855471419978434E-014
  0.847875000000000         1.354214044027486E-013
  0.960925000000000         2.242264434009525E-013
   1.07397500000000         3.582935280118938E-013
   1.18702500000000         5.547080961684326E-013
   1.30007500000000         8.348422990481562E-013
   1.41312500000000         1.224840814372476E-012
   1.52617500000000         1.756037833587622E-012
   1.63922500000000         2.465284216394048E-012
   1.75227500000000         3.395174864392179E-012
   1.86532500000000         4.594154594486395E-012
   1.97837500000000         6.116481955406998E-012
   2.09142500000000         8.022051603739868E-012
   2.20447500000000         1.037606338519494E-011
   2.31752500000000         1.324853183835311E-011
   2.43057500000000         1.671365216903086E-011
   2.54362500000000         2.084900072585217E-011
   2.65667500000000         2.573462557829832E-011
   2.76972500000000         3.145198283399776E-011
   2.88277500000000         3.808281485945416E-011
   2.99582500000000         4.570790907659620E-011
   3.10887500000000         5.440588357587767E-011
   3.22192500000000         6.425189578556684E-011
   3.33497500000000         7.531643837200109E-011
   3.44802500000000         8.766416497285236E-011
   3.56107500000000         1.013528591983404E-010
   3.67412500000000         1.164325512472084E-010
   3.78717500000000         1.329447842757588E-010
   3.90022500000000         1.509221020896518E-010
   4.01327500000000         1.703877996395469E-010
   4.12632500000000         1.913558408520230E-010
   4.23937500000000         2.138310822385302E-010
   4.35242500000000         2.378097044137973E-010
   4.46547500000000         2.632798427624105E-010
   4.57852500000000         2.902224876675450E-010
   4.69157500000000         3.186124387204130E-010
   4.80462500000000         3.484194434049714E-010
   4.91767500000000         3.796094153047885E-010
   5.03072500000000         4.121456557500878E-010
   5.14377500000000         4.459901016519007E-010
   5.25682500000000         4.811044952957375E-010
   5.36987500000000         5.174514558361853E-010
   5.48292500000000         5.549954354604591E-010
   5.59597500000000         5.937035355014496E-010
   5.70902500000000         6.335461530732588E-010
   5.82207500000000         6.744974589984452E-010
   5.93512500000000         7.165357130918295E-010
   6.04817500000000         7.596433891548244E-010
   6.16122500000000         8.038072195097952E-010
   6.27427500000000         8.490180730255546E-010
   6.38732500000000         8.952707587715765E-010
   6.50037500000000         9.425637840904321E-010
   6.61342500000000         9.908990732367074E-010
   6.72647500000000         1.040281707428842E-009
   6.83952500000000         1.090719694712805E-009
   6.95257500000000         1.142223815656715E-009
   7.06562500000000         1.194807507158090E-009
   7.17867500000000         1.248486925008553E-009
   7.29172500000000         1.303281037568925E-009
   7.40477500000000         1.359211857921373E-009
   7.51782500000000         1.416304785657891E-009
   7.63087500000000         1.474588973956614E-009
   7.74392500000000         1.534097830363263E-009
   7.85697500000000         1.594869443686908E-009
   7.97002500000000         1.656947087383906E-009
   8.08307500000000         1.720379599927691E-009
   8.19612500000000         1.785221734365293E-009
   8.30917500000000         1.851534341714301E-009
   8.42222500000000         1.919384369961622E-009
   8.53527500000000         1.988844727810029E-009
   8.64832500000000         2.059993884185336E-009
   8.76137500000000         2.132915269747271E-009
   8.87442500000000         2.207696435537892E-009
   8.98747500000000         2.284428021130554E-009
   9.10052500000000         2.363202505775159E-009
   9.21357500000000         2.444112826084725E-009
   9.32662500000000         2.527250870601192E-009
   9.43967500000000         2.612705919549872E-009
   9.55272500000000         2.700563127031292E-009
   9.66577500000000         2.790902022603621E-009
   9.77882500000000         2.883795157173085E-009
   9.89187500000000         2.979306943613973E-009
   10.0049250000000         3.077492697902740E-009
   10.1179750000000         3.178397966043112E-009
   10.2310250000000         3.282058155333404E-009
   10.3440750000000         3.388498474750901E-009
   10.4571250000000         3.497734177985417E-009
   10.5701750000000         3.609771086012759E-009
   10.6832250000000         3.724606382768870E-009
   10.7962750000000         3.842229659891135E-009
   10.9093250000000         3.962624069633267E-009
   11.0223750000000         4.085767659844622E-009
   11.1354250000000         4.211634709717865E-009
   11.2484750000000         4.340197090664539E-009
   11.3615250000000         4.471425583478263E-009
   11.4745750000000         4.605291033402817E-009
   11.5876250000000         4.741765422964374E-009
   11.7006750000000         4.880822706106604E-009
   11.8137250000000         5.022439487871710E-009
   11.9267750000000         5.166595461990019E-009
   12.0398250000000         5.313273709655404E-009
   12.1528750000000         5.462460757306364E-009
   12.2659250000000         5.614146543970822E-009
   12.3789750000000         5.768324241408562E-009
   12.4920250000000         5.924990033007597E-009
   12.6050750000000         6.084142840224635E-009
   12.7181250000000         6.245784100632981E-009
   12.8311750000000         6.409917589114001E-009
   12.9442250000000         6.576549380912387E-009
   13.0572750000000         6.745687912228612E-009
   13.1703250000000         6.917344208607841E-009
   13.2833750000000         7.091532259430716E-009
   13.3964250000000         7.268269573922248E-009
   13.5094750000000         7.447577876077962E-009
   13.6225250000000         7.629483868559386E-009
   13.7355750000000         7.814020132830232E-009
   13.8486250000000         8.001226013382354E-009
   13.9616750000000         8.191148452406476E-009
   14.0747250000000         8.383842769602160E-009
   14.1877750000000         8.579373237257399E-009
   14.3008250000000         8.777813481611146E-009
   14.4138750000000         8.979246598745473E-009
   14.5269250000000         9.183764944934316E-009
   14.6399750000000         9.391469623209542E-009
   14.7530250000000         9.602469572934748E-009
   14.8660750000000         9.816880372560241E-009
   14.9791250000000         1.003482268285105E-008
   15.0921750000000         1.025642042059981E-008
   15.2052250000000         1.048179869086399E-008
   15.3182750000000         1.071108159852679E-008
   15.4313250000000         1.094438996767586E-008
   15.5443750000000         1.118183909322204E-008
   15.6574250000000         1.142353660864846E-008
   15.7704750000000         1.166958053610340E-008
   15.8835250000000         1.192005766937345E-008
   15.9965750000000         1.217504230404681E-008
   16.1096250000000         1.243459538884339E-008
   16.2226750000000         1.269876413081563E-008
   16.3357250000000         1.296758209301654E-008
   16.4487750000000         1.324106979051230E-008
   16.5618250000000         1.351923570185163E-008
   16.6748750000000         1.380207772627240E-008
   16.7879250000000         1.408958496854546E-008
   16.9009750000000         1.438173980129293E-008
   17.0140250000000         1.467852014400436E-008
   17.1270750000000         1.497990174599587E-008
   17.2401250000000         1.528586053204603E-008
   17.3531750000000         1.559637477844391E-008
   17.4662250000000         1.591142715161949E-008
   17.5792750000000         1.623100638521941E-008
   17.6923250000000         1.655510867206336E-008
   17.8053750000000         1.688373864825347E-008
   17.9184250000000         1.721690991319975E-008
   18.0314750000000         1.755464515259791E-008
   18.1445250000000         1.789697582307713E-008
   18.2575750000000         1.824394139946072E-008
   18.3706250000000         1.859558828184249E-008
   18.4836750000000         1.895196842648906E-008
   18.5967250000000         1.931313767420133E-008
   18.7097750000000         1.967915400358414E-008
   18.8228250000000         2.005007564398288E-008
   18.9358750000000         2.042595926161858E-008
   19.0489250000000         2.080685820266972E-008
   19.1619750000000         2.119282094352257E-008
   19.2750250000000         2.158388976902765E-008
   19.3880750000000         2.198009978728320E-008
   19.5011250000000         2.238147823475137E-008
   19.6141750000000         2.278804422771798E-008
   19.7272250000000         2.319980883398414E-008
   19.8402750000000         2.361677559115508E-008
   19.9533250000000         2.403894127092857E-008
   20.0663750000000         2.446629710029367E-008
   20.1794250000000         2.489883012959747E-008
   20.2924750000000         2.533652488684274E-008
   20.4055250000000         2.577936510798389E-008
   20.5185750000000         2.622733558751394E-008
   20.6316250000000         2.668042397847632E-008
   20.7446750000000         2.713862253762487E-008
   20.8577250000000         2.760192975219014E-008
   20.9707750000000         2.807035173822675E-008
   21.0838250000000         2.854390345124394E-008
   21.1968750000000         2.902260958440225E-008
   21.3099250000000         2.950650521308044E-008
   21.4229750000000         2.999563617722755E-008
   21.5360250000000         3.049005913086417E-008
   21.6490750000000         3.098984134629402E-008
   21.7621250000000         3.149506028934893E-008
   21.8751750000000         3.200580298218290E-008
   21.9882250000000         3.252216516087005E-008
   22.1012750000000         3.304425033015258E-008
   22.2143250000000         3.357216869973119E-008
   22.3273750000000         3.410603606270717E-008
   22.4404250000000         3.464597263336863E-008
   22.5534750000000         3.519210189400682E-008
   22.6665250000000         3.574454946312484E-008
   22.7795750000000         3.630344201474611E-008
   22.8926250000000         3.686890626134654E-008
   23.0056750000000         3.744106800401329E-008
   23.1187250000000         3.802005129027793E-008
   23.2317750000000         3.860597764987971E-008
   23.3448250000000         3.919896544560145E-008
   23.4578750000000         3.979912932662628E-008
   23.5709250000000         4.040657974749137E-008
   23.6839750000000         4.102142263027606E-008
   23.7970250000000         4.164375908767188E-008
   23.9100750000000         4.227368527093600E-008
   24.0231250000000         4.291129227274839E-008
   24.1361750000000         4.355666612547727E-008
   24.2492250000000         4.420988784931058E-008
   24.3622750000000         4.487103358668065E-008
   24.4753250000000         4.554017478086707E-008
   24.5883750000000         4.621737841355233E-008
   24.7014250000000         4.690270726287542E-008
   24.8144750000000         4.759622023923282E-008
   24.9275250000000         4.829797270195977E-008
   25.0405750000000         4.900801684838305E-008
   25.1536250000000         4.972640212081528E-008
   25.2666750000000         5.045317565016350E-008
   25.3797250000000         5.118838272275442E-008
   25.4927750000000         5.193206729468368E-008
   25.6058250000000         5.268427253725198E-008
   25.7188750000000         5.344504142107109E-008
   25.8319250000000         5.421441733653624E-008
   25.9449750000000         5.499244474167861E-008
   26.0580250000000         5.577916988492206E-008
   26.1710750000000         5.657464148278872E-008
   26.2841250000000         5.737891148333726E-008
   26.3971750000000         5.819203582109585E-008
   26.5102250000000         5.901407515485762E-008
   26.6232750000000         5.984509560902790E-008
   26.7363250000000         6.068516947703397E-008
   26.8493750000000         6.153437588082862E-008
   26.9624250000000         6.239280137865705E-008
   27.0754750000000         6.326054050740132E-008
   27.1885250000000         6.413769619234573E-008
   27.3015750000000         6.502438010464513E-008
   27.4146250000000         6.592071284305208E-008
   27.5276750000000         6.682682405159080E-008
   27.6407250000000         6.774285231940799E-008
   27.7537750000000         6.866894498664497E-008
   27.8668250000000         6.960525775312018E-008
   27.9798750000000         7.055195410727213E-008
   28.0929250000000         7.150920460617874E-008
   28.2059750000000         7.247718597697461E-008
   28.3190250000000         7.345608005472674E-008
   28.4320750000000         7.444607256051450E-008
   28.5451250000000         7.544735173497232E-008
   28.6581750000000         7.646010686995776E-008
   28.7712250000000         7.748452673076858E-008
   28.8842750000000         7.852079792411998E-008
   28.9973250000000         7.956910323862504E-008
   29.1103750000000         8.062962002953031E-008
   29.2234250000000         8.170251861171306E-008
   29.3364750000000         8.278796080241648E-008
   29.4495250000000         8.388609859272635E-008
   29.5625750000000         8.499707296469507E-008
   29.6756250000000         8.612101298218092E-008
   29.7886750000000         8.725803505326569E-008
   29.9017250000000         8.840824251196626E-008
   30.0147750000000         8.957172544208101E-008
   30.1278250000000         9.074856074167349E-008
   30.2408750000000         9.193881250266060E-008
   30.3539250000000         9.314253256654886E-008
   30.4669750000000         9.435976134851973E-008
   30.5800250000000         9.559052880146417E-008
   30.6930750000000         9.683485556871054E-008
   30.8061250000000         9.809275421039266E-008
   30.9191750000000         9.936423050125586E-008
   31.0322250000000         1.006492847792589E-007
   31.1452750000000         1.019479132403294E-007
   31.2583250000000         1.032601092365879E-007
   31.3713750000000         1.045858644469231E-007
   31.4844250000000         1.059251699773497E-007
   31.5974750000000         1.072780173381728E-007
   31.7105250000000         1.086443992787251E-007
   31.8235750000000         1.100243105037448E-007
   31.9366250000000         1.114177482292328E-007
   32.0496750000000         1.128247126333793E-007
   32.1627250000000         1.142452071644705E-007
   32.2757750000000         1.156792387619559E-007
   32.3888250000000         1.171268179755769E-007
   32.5018750000000         1.185879590204409E-007
   32.6149250000000         1.200626798027009E-007
   32.7279750000000         1.215510019179328E-007
   32.8410250000000         1.230529505858553E-007
   32.9540750000000         1.245685546981677E-007
   33.0671250000000         1.260978468162591E-007
   33.1801750000000         1.276408632540737E-007
   33.2932250000000         1.291976441785337E-007
   33.4062750000000         1.307682337814798E-007
   33.5193250000000         1.323526804629494E-007
   33.6323750000000         1.339510370628037E-007
   33.7454250000000         1.355633611190729E-007
   33.8584750000000         1.371897151059826E-007
   33.9715250000000         1.388301666526571E-007
   34.0845750000000         1.404847887258419E-007
   34.1976250000000         1.421536597308307E-007
   34.3106750000000         1.438368634993260E-007
   34.4237250000000         1.455344892072652E-007
   34.5367750000000         1.472466311509264E-007
   34.6498250000000         1.489733883608476E-007
   34.7628750000000         1.507148641119476E-007
   34.8759250000000         1.524711652997906E-007
   34.9889750000000         1.542424016951607E-007
   35.1020250000000         1.560286850984984E-007
   35.2150750000000         1.578301284493752E-007
   35.3281250000000         1.596468448686227E-007
   35.4411750000000         1.614789467346377E-007
   35.5542250000000         1.633265447801304E-007
   35.6672750000000         1.651897472616648E-007
   35.7803250000000         1.670686592414591E-007
   35.8933750000000         1.689633820432717E-007
   36.0064250000000         1.708740128267204E-007
   36.1194750000000         1.728006444218144E-007
   36.2325250000000         1.747433652999833E-007
   36.3455750000000         1.767022598344560E-007
   36.4586250000000         1.786774087217540E-007
   36.5716750000000         1.806688896303558E-007
   36.6847250000000         1.826767780262789E-007
   36.7977750000000         1.847011481940321E-007
   36.9108250000000         1.867420743250171E-007
   37.0238750000000         1.887996317639066E-007
   37.1369250000000         1.908738983034294E-007
   37.2499750000000         1.929649554265753E-007
   37.3630250000000         1.950728896015516E-007
   37.4760750000000         1.971977934096839E-007
   37.5891250000000         1.993397666117093E-007
   37.7021750000000         2.014989169951712E-007
   37.8152250000000         2.036753610603912E-007
   37.9282750000000         2.058692244087069E-007
   38.0413250000000         2.080806419139138E-007
   38.1543750000000         2.103097576157791E-007
   38.2674250000000         2.125567243237302E-007
   38.3804750000000         2.148217029444859E-007
   38.4935250000000         2.171048615698449E-007
   38.6065750000000         2.194063743205710E-007
   38.7196250000000         2.217264200337303E-007
   38.8326750000000         2.240651807640876E-007
   38.9457250000000         2.264228402296936E-007
   39.0587750000000         2.287995821887382E-007
   39.1718250000000         2.311955888752630E-007
   39.2848750000000         2.336110395194766E-007
   39.3979250000000         2.360461089534105E-007
   39.5109750000000         2.385009664811199E-007
   39.6240250000000         2.409757749120573E-007
   39.7370750000000         2.434706898837508E-007
   39.8501250000000         2.459858594704171E-007
   39.9631750000000         2.485214240701958E-007
   40.0762250000000         2.510775165956480E-007
   40.1892750000000         2.536542629490264E-007
   40.3023250000000         2.562517827412658E-007
   40.4153750000000         2.588701902392443E-007
   40.5284250000000         2.615095954871663E-007
   40.6414750000000         2.641701056052734E-007
   40.7545250000000         2.668518261442320E-007
   40.8675750000000         2.695548624847414E-007
   40.9806250000000         2.722793212748116E-007
   41.0936750000000         2.750253117622488E-007
   41.2067250000000         2.777929470855316E-007
   41.3197750000000         2.805823453906288E-007
   41.4328250000000         2.833936308623469E-007
   41.5458750000000         2.862269344997395E-007
   41.6589250000000         2.890823947586193E-007
   41.7719750000000         2.919601579842469E-007
   41.8850250000000         2.948603786496888E-007
   41.9980750000000         2.977832194158822E-007
   42.1111250000000         3.007288510290124E-007
   42.2241750000000         3.036974520410179E-007
   42.3372250000000         3.066892084112893E-007
   42.4502750000000         3.097043129905416E-007
   42.5633250000000         3.127429649178895E-007
   42.6763750000000         3.158053689687388E-007
   42.7894250000000         3.188917347942559E-007
   42.9024750000000         3.220022761468476E-007
   43.0155250000000         3.251372100729210E-007
   43.1285750000000         3.282967560690731E-007
   43.2416250000000         3.314811352040945E-007
   43.3546750000000         3.346905691766248E-007
   43.4677250000000         3.379252793535620E-007
   43.5807750000000         3.411854857636033E-007
   43.6938250000000         3.444714059776359E-007
   43.8068750000000         3.477832539544686E-007
   43.9199250000000         3.511212388284536E-007
   44.0329750000000         3.544855636146744E-007
   44.1460250000000         3.578764238750409E-007
   44.2590750000000         3.612940063774456E-007
   44.3721250000000         3.647384877333891E-007
   44.4851750000000         3.682100331259237E-007
   44.5982250000000         3.717087951378870E-007
   44.7112750000000         3.752349127419025E-007
   44.8243250000000         3.787885104975025E-007
   44.9373750000000         3.823696980124107E-007
   45.0504250000000         3.859785697986970E-007
   45.1634750000000         3.896152054408132E-007
   45.2765250000000         3.932796701958537E-007
   45.3895750000000         3.969720160094873E-007
   45.5026250000000         4.006922829821617E-007
   45.6156750000000         4.044405011976298E-007
   45.7287250000000         4.082166929348036E-007
   45.8417750000000         4.120208751627448E-007
   45.9548250000000         4.158530622400183E-007
   46.0678750000000         4.197132687153509E-007
   46.1809250000000         4.236015121020701E-007
   46.2939750000000         4.275178155092086E-007
   46.4070250000000         4.314622100119642E-007
   46.5200750000000         4.354347366088374E-007
   46.6331250000000         4.394354476429482E-007
   46.7461750000000         4.434644076411620E-007
   46.8592250000000         4.475216934422512E-007
   46.9722750000000         4.516073935661510E-007
   47.0853250000000         4.557216068602135E-007
   47.1983750000000         4.598644404134967E-007
   47.3114250000000         4.640360068105771E-007
   47.4244750000000         4.682364208465933E-007
   47.5375250000000         4.724657958126833E-007
   47.6505750000000         4.767242395911072E-007
   47.7636250000000         4.810118507113539E-007
   47.8766750000000         4.853287146182649E-007
   47.9897250000000         4.896749004021954E-007
   48.1027750000000         4.940504582164493E-007
   48.2158250000000         4.984554176097021E-007
   48.3288750000000         5.028897869790566E-007
   48.4419250000000         5.073535543146171E-007
   48.5549750000000         5.118466893062413E-007
   48.6680250000000         5.163691469457955E-007
   48.7810750000000         5.209208725299453E-007
   48.8941250000000         5.255018080607554E-007
   49.0071750000000         5.301118998019957E-007
   49.1202250000000         5.347511067950314E-007
   49.2332750000000         5.394194100178345E-007
   49.3463250000000         5.441168218097200E-007
   49.4593750000000         5.488433950921628E-007
   49.5724250000000         5.535992320098800E-007
   49.6854750000000         5.583844914399175E-007
   49.7985250000000         5.631993949053987E-007
   49.9115750000000         5.680442304343301E-007
   50.0246250000000         5.729193539618448E-007
   50.1376750000000         5.778251879676777E-007
   50.2507250000000         5.827622170390921E-007
   50.3637750000000         5.877309802976120E-007
   50.4768250000000         5.927320606823441E-007
   50.5898750000000         5.977660712192447E-007
   50.7029250000000         6.028336385308872E-007
   50.8159750000000         6.079353841181892E-007
   50.9290250000000         6.130719039248043E-007
   51.0420750000000         6.182437469002145E-007
   51.1551250000000         6.234513934273459E-007
   51.2681750000000         6.286952345142660E-007
   51.3812250000000         6.339755526597116E-007
   51.4942750000000         6.392925054374179E-007
   51.6073250000000         6.446461127458100E-007
   51.7203750000000         6.500362485801413E-007
   51.8334250000000         6.554626381722466E-007
   51.9464750000000         6.609248610436321E-007
   52.0595250000000         6.664223604857082E-007
   52.1725750000000         6.719544596432614E-007
   52.2856250000000         6.775203841906555E-007
   52.3986750000000         6.831192912248407E-007
   52.5117250000000         6.887503037777848E-007
   52.6247750000000         6.944125500434855E-007
   52.7378250000000         7.001052061486032E-007
   52.8508750000000         7.058275410009747E-007
   52.9639250000000         7.115789615446450E-007
   53.0769750000000         7.173590566307163E-007
   53.1900250000000         7.231676375161906E-007
   53.3030750000000         7.290047730688593E-007
   53.4161250000000         7.348708176696269E-007
   53.5291750000000         7.407664300504443E-007
   53.6422250000000         7.466925814569518E-007
   53.7552750000000         7.526505517823353E-007
   53.8683250000000         7.586419128127113E-007
   53.9813750000000         7.646684979861569E-007
   54.0944250000000         7.707323587923228E-007
   54.2074750000000         7.768357083170807E-007
   54.3205250000000         7.829808531192103E-007
   54.4335750000000         7.891701151058462E-007
   54.5466250000000         7.954057457635083E-007
   54.6596750000000         8.016898355028806E-007
   54.7727250000000         8.080242214119609E-007
   54.8857750000000         8.144103970158692E-007
   54.9988250000000         8.208494278762123E-007
   55.1118750000000         8.273418770263023E-007
   55.2249250000000         8.338877441124000E-007
   55.3379750000000         8.404864219810395E-007
   55.4510250000000         8.471366739604453E-007
   55.5640750000000         8.538366346768040E-007
   55.6771250000000         8.605838364421193E-007
   55.7901750000000         8.673752624053308E-007
   55.9032250000000         8.742074266971351E-007
   56.0162750000000         8.810764807338833E-007
   56.1293250000000         8.879783436942699E-007
   56.2423750000000         8.949088540551721E-007
   56.3554250000000         9.018639379078879E-007
   56.4684750000000         9.088397888255674E-007
   56.5815250000000         9.158330529795186E-007
   56.6945750000000         9.228410125614052E-007
   56.8076250000000         9.298617600189358E-007
   56.9206750000000         9.368943552940529E-007
   57.0337250000000         9.439389582618685E-007
   57.1467750000000         9.509969289673800E-007
   57.2598250000000         9.580708888006950E-007
   57.3728750000000         9.651647368032228E-007
   57.4859250000000         9.722836165994305E-007
   57.5989750000000         9.794338310133669E-007
   57.7120250000000         9.866227032152240E-007
   57.8250750000000         9.938583854313880E-007
   57.9381250000000         1.001149618292086E-006
   58.0511750000000         1.008505446111971E-006
   58.1642250000000         1.015934895733190E-006
   58.2772750000000         1.023446628461291E-006
   58.3903250000000         1.031048576647711E-006
   58.5033750000000         1.038747577876605E-006
   58.6164250000000         1.046549021073308E-006
   58.7294750000000         1.054456519337694E-006
   58.8425250000000         1.062471624665356E-006
   58.9555750000000         1.070593599102572E-006
   59.0686250000000         1.078819256048099E-006
   59.1816750000000         1.087142883560525E-006
   59.2947250000000         1.095556259428750E-006
   59.4077750000000         1.104048764845980E-006
   59.5208250000000         1.112607600169844E-006
   59.6338750000000         1.121218102670088E-006
   59.7469250000000         1.129864162033608E-006
   59.8599750000000         1.138528725309106E-006
   59.9730250000000         1.147194378780302E-006
   60.0860750000000         1.155843990331584E-006
   60.1991250000000         1.164461392213665E-006
   60.3121750000000         1.173032080976931E-006
   60.4252250000000         1.181543908851140E-006
   60.5382750000000         1.189987739343296E-006
   60.6513250000000         1.198358038954091E-006
   60.7643750000000         1.206653377369484E-006
   60.8774250000000         1.214876809913537E-006
   60.9904750000000         1.223036118569775E-006
   61.1035250000000         1.231143891662178E-006
   61.2165750000000         1.239217426995136E-006
   61.3296250000000         1.247278448804792E-006
   61.4426750000000         1.255352635554992E-006
   61.5557250000000         1.263468962467156E-006
   61.6687750000000         1.271658870193037E-006
   61.7818250000000         1.279955278499534E-006
   61.8948750000000         1.288391471164126E-006
   62.0079250000000         1.296999885085275E-006
   62.1209750000000         1.305810842638877E-006
   62.2340250000000         1.314851271293132E-006
   62.3470750000000         1.324143458100130E-006
   62.4601250000000         1.333703888655837E-006
   62.5731750000000         1.343542220539140E-006
   62.6862250000000         1.353660439326128E-006
   62.7992750000000         1.364052241997737E-006
   62.9123250000000         1.374702686754631E-006
   63.0253750000000         1.385588140973819E-006
   63.1384250000000         1.396676549684905E-006
   63.2514750000000         1.407928036563870E-006
   63.3645250000000         1.419295837360172E-006
   63.4775750000000         1.430727553268316E-006
   63.5906250000000         1.442166698637844E-006
   63.7036750000000         1.453554504630125E-006
   63.8167250000000         1.464831928127473E-006
   63.9297750000000         1.475941804114344E-006
   64.0428250000000         1.486831070205523E-006
   64.1558750000000         1.497452984623906E-006
   64.2689250000000         1.507769253992738E-006
   64.3819750000000         1.517751985278326E-006
   64.4950250000000         1.527385377425575E-006
   64.6080750000000         1.536667072494920E-006
   64.7211250000000         1.545609093961738E-006
   64.8341750000000         1.554238310775699E-006
   64.9472250000000         1.562596379824077E-006
   65.0602750000000         1.570739136264466E-006
   65.1733250000000         1.578735420115465E-006
   65.2863750000000         1.586665348156183E-006
   65.3994250000000         1.594618061860789E-006
   65.5124750000000         1.602689003879247E-006